      -----------------------------------------------------------      
     |                   =====================                   |     
     |                           x T B                           |     
     |                   =====================                   |     
     |                         S. Grimme                         |     
     |          Mulliken Center for Theoretical Chemistry        |     
     |                    University of Bonn                     |     
      -----------------------------------------------------------      

   * xtb version 6.5.0 (746241f) compiled by 'ehlert@majestix' on 2022-05-15

   xtb is free software: you can redistribute it and/or modify it under
   the terms of the GNU Lesser General Public License as published by
   the Free Software Foundation, either version 3 of the License, or
   (at your option) any later version.
   
   xtb is distributed in the hope that it will be useful,
   but WITHOUT ANY WARRANTY; without even the implied warranty of
   MERCHANTABILITY or FITNESS FOR A PARTICULAR PURPOSE.  See the
   GNU Lesser General Public License for more details.
   
   Cite this work as:
   * C. Bannwarth, E. Caldeweyher, S. Ehlert, A. Hansen, P. Pracht,
     J. Seibert, S. Spicher, S. Grimme, WIREs Comput. Mol. Sci., 2020, 11,
     e01493. DOI: 10.1002/wcms.1493
   
   for GFN2-xTB:
   * C. Bannwarth, S. Ehlert and S. Grimme., J. Chem. Theory Comput., 2019,
     15, 1652-1671. DOI: 10.1021/acs.jctc.8b01176
   for GFN1-xTB:
   * S. Grimme, C. Bannwarth, P. Shushkov, J. Chem. Theory Comput., 2017,
     13, 1989-2009. DOI: 10.1021/acs.jctc.7b00118
   for GFN0-xTB:
   * P. Pracht, E. Caldeweyher, S. Ehlert, S. Grimme, ChemRxiv, 2019, preprint.
     DOI: 10.26434/chemrxiv.8326202.v1
   for GFN-FF:
   * S. Spicher and S. Grimme, Angew. Chem. Int. Ed., 2020, 59, 15665-15673.
     DOI: 10.1002/anie.202004239
   
   for ALPB and GBSA implicit solvation:
   * S. Ehlert, M. Stahn, S. Spicher, S. Grimme, J. Chem. Theory Comput.,
     2021, 17, 4250-4261. DOI: 10.1021/acs.jctc.1c00471
   
   for DFT-D4:
   * E. Caldeweyher, C. Bannwarth and S. Grimme, J. Chem. Phys., 2017,
     147, 034112. DOI: 10.1063/1.4993215
   * E. Caldeweyher, S. Ehlert, A. Hansen, H. Neugebauer, S. Spicher,
     C. Bannwarth and S. Grimme, J. Chem. Phys., 2019, 150, 154122.
     DOI: 10.1063/1.5090222
   * E. Caldeweyher, J.-M. Mewes, S. Ehlert and S. Grimme, Phys. Chem. Chem. Phys.
     2020, 22, 8499-8512. DOI: 10.1039/D0CP00502A
   
   for sTDA-xTB:
   * S. Grimme and C. Bannwarth, J. Chem. Phys., 2016, 145, 054103.
     DOI: 10.1063/1.4959605
   
   in the mass-spec context:
   * V. Asgeirsson, C. Bauer and S. Grimme, Chem. Sci., 2017, 8, 4879.
     DOI: 10.1039/c7sc00601b
   * J. Koopman and S. Grimme, ACS Omega 2019, 4, 12, 15120-15133.
     DOI: 10.1021/acsomega.9b02011
   
   for metadynamics refer to:
   * S. Grimme, J. Chem. Theory Comput., 2019, 155, 2847-2862
     DOI: 10.1021/acs.jctc.9b00143
   
   for SPH calculations refer to:
   * S. Spicher and S. Grimme, J. Chem. Theory Comput., 2021, 17, 1701-1714
     DOI: 10.1021/acs.jctc.0c01306
   
   with help from (in alphabetical order)
   P. Atkinson, C. Bannwarth, F. Bohle, G. Brandenburg, E. Caldeweyher
   M. Checinski, S. Dohm, S. Ehlert, S. Ehrlich, I. Gerasimov, C. Hölzer
   A. Katbashev, J. Koopman, C. Lavigne, S. Lehtola, F. März, M. Müller,
   F. Musil, H. Neugebauer, J. Pisarek, C. Plett, P. Pracht, F. Pultar,
   J. Seibert, P. Shushkov, S. Spicher, M. Stahn, M. Steiner, T. Strunk,
   J. Stückrath, T. Rose, and J. Unsleber
   
 * started run on 2022/07/14 at 15:23:24.733     

           -------------------------------------------------
          |                Calculation Setup                |
           -------------------------------------------------

          program call               : xtb -c 0 -u 0 e4_cl_uplike1.xyz --opt normal
          coordinate file            : e4_cl_uplike1.xyz
          omp threads                :                    16

   ID    Z sym.   atoms
    1    6 C      1, 2, 6, 8, 9, 12, 13, 15
    2    9 F      3, 14
    3    1 H      4, 10, 11, 16
    4   16 S      5, 7

           -------------------------------------------------
          |                 G F N 2 - x T B                 |
           -------------------------------------------------

        Reference                      10.1021/acs.jctc.8b01176
      * Hamiltonian:
        H0-scaling (s, p, d)           1.850000    2.230000    2.230000
        zeta-weighting                 0.500000
      * Dispersion:
        s8                             2.700000
        a1                             0.520000
        a2                             5.000000
        s9                             5.000000
      * Repulsion:
        kExp                           1.500000    1.000000
        rExp                           1.000000
      * Coulomb:
        alpha                          2.000000
        third order                    shell-resolved
        anisotropic                    true
        a3                             3.000000
        a5                             4.000000
        cn-shift                       1.200000
        cn-exp                         4.000000
        max-rad                        5.000000

q/qsh data taken from xtbrestart
CAMM data taken from xtbrestart

          ...................................................
          :                      SETUP                      :
          :.................................................:
          :  # basis functions                  64          :
          :  # atomic orbitals                  62          :
          :  # shells                           30          :
          :  # electrons                        62          :
          :  max. iterations                   250          :
          :  Hamiltonian                  GFN2-xTB          :
          :  restarted?                       true          :
          :  GBSA solvation                  false          :
          :  PC potential                    false          :
          :  electronic temp.          300.0000000     K    :
          :  accuracy                    1.0000000          :
          :  -> integral cutoff          0.2500000E+02      :
          :  -> integral neglect         0.1000000E-07      :
          :  -> SCF convergence          0.1000000E-05 Eh   :
          :  -> wf. convergence          0.1000000E-03 e    :
          :  Broyden damping             0.4000000          :
          ...................................................

 iter      E             dE          RMSdq      gap      omega  full diag
   1    -35.1812278 -0.351812E+02  0.538E+00    3.26       0.0  T
   2    -35.2068842 -0.256565E-01  0.425E+00    3.77       1.0  T
   3    -35.2265934 -0.197091E-01  0.196E+00    3.49       1.0  T
   4    -35.2489123 -0.223190E-01  0.271E-01    3.66       1.0  T
   5    -35.2490262 -0.113816E-03  0.151E-01    3.65       1.0  T
   6    -35.2491831 -0.156961E-03  0.462E-02    3.65       1.0  T
   7    -35.2491860 -0.286697E-05  0.190E-02    3.65       1.3  T
   8    -35.2491865 -0.503077E-06  0.589E-03    3.65       4.2  T
   9    -35.2491866 -0.634020E-07  0.174E-03    3.65      14.4  T
  10    -35.2491866 -0.580052E-09  0.910E-04    3.65      27.5  T
  11    -35.2491866 -0.809954E-08  0.237E-04    3.65     105.3  T

   *** convergence criteria satisfied after 11 iterations ***

         #    Occupation            Energy/Eh            Energy/eV
      -------------------------------------------------------------
         1        2.0000           -0.9037486             -24.5923
       ...           ...                  ...                  ...
        25        2.0000           -0.4388889             -11.9428
        26        2.0000           -0.4373250             -11.9002
        27        2.0000           -0.4302760             -11.7084
        28        2.0000           -0.4269489             -11.6179
        29        2.0000           -0.4143716             -11.2756
        30        2.0000           -0.3649957              -9.9320
        31        2.0000           -0.3630348              -9.8787 (HOMO)
        32                         -0.2288786              -6.2281 (LUMO)
        33                         -0.2176676              -5.9230
        34                         -0.2098523              -5.7104
        35                         -0.1827032              -4.9716
        36                         -0.1509943              -4.1088
       ...                                ...                  ...
        62                          6.7321367             183.1908
      -------------------------------------------------------------
                  HL-Gap            0.1341562 Eh            3.6506 eV
             Fermi-level           -0.2959567 Eh           -8.0534 eV

 SCC (total)                   0 d,  0 h,  0 min,  0.010 sec
 SCC setup                      ...        0 min,  0.000 sec (  1.156%)
 Dispersion                     ...        0 min,  0.000 sec (  1.672%)
 classical contributions        ...        0 min,  0.000 sec (  0.659%)
 integral evaluation            ...        0 min,  0.001 sec (  8.601%)
 iterations                     ...        0 min,  0.006 sec ( 66.545%)
 molecular gradient             ...        0 min,  0.002 sec ( 20.245%)
 printout                       ...        0 min,  0.000 sec (  0.969%)

         :::::::::::::::::::::::::::::::::::::::::::::::::::::
         ::                     SUMMARY                     ::
         :::::::::::::::::::::::::::::::::::::::::::::::::::::
         :: total energy             -33.310644885065 Eh    ::
         :: gradient norm              4.099781747164 Eh/a0 ::
         :: HOMO-LUMO gap              3.650576364536 eV    ::
         ::.................................................::
         :: SCC energy               -35.249186563205 Eh    ::
         :: -> isotropic ES            0.017180485238 Eh    ::
         :: -> anisotropic ES          0.009852111028 Eh    ::
         :: -> anisotropic XC         -0.020494575149 Eh    ::
         :: -> dispersion             -0.017502958768 Eh    ::
         :: repulsion energy           1.938570605425 Eh    ::
         :: add. restraining           0.000000000000 Eh    ::
         :: total charge              -0.000000000000 e     ::
         :::::::::::::::::::::::::::::::::::::::::::::::::::::

      ----------------------------------------------------------- 
     |                   =====================                   |
     |                        A N C O P T                        |
     |                   =====================                   |
     |               Approximate Normal Coordinate               |
     |                Rational Function Optimizer                |
      ----------------------------------------------------------- 

          ...................................................
          :                      SETUP                      :
          :.................................................:
          :   optimization level            normal          :
          :   max. optcycles                   200          :
          :   ANC micro-cycles                  20          :
          :   degrees of freedom                42          :
          :.................................................:
          :   RF solver                   davidson          :
          :   write xtbopt.log                true          :
          :   linear?                        false          :
          :   energy convergence         0.5000000E-05 Eh   :
          :   grad. convergence          0.1000000E-02 Eh/α :
          :   maximium RF displ.         1.0000000          :
          :   Hlow (freq-cutoff)         0.1000000E-01      :
          :   Hmax (freq-cutoff)         5.0000000          :
          :   S6 in model hess.         20.0000000          :
          ...................................................

generating ANC from model Hessian ...
Using Lindh-Hessian (1995)
 Shifting diagonal of input Hessian by   1.830029687599245E-004
 Lowest  eigenvalues of input Hessian
    0.000000    0.000000    0.000000    0.000000    0.000000    0.000000
    0.010000    0.018895    0.019697    0.039689    0.060288    0.068178
    0.076655    0.100992    0.108878    0.130040    0.132605    0.150885
 Highest eigenvalues
    3.627428    3.647948    4.872772    5.385230    6.728112    7.039592
 

........................................................................
.............................. CYCLE    1 ..............................
........................................................................
   1    -35.2491866 -0.352492E+02  0.774E-05    3.65       0.0  T
   2    -35.2491866 -0.183817E-10  0.398E-05    3.65     627.7  T
   3    -35.2491866 -0.318323E-11  0.281E-05    3.65     888.9  T
     SCC iter.                  ...        0 min,  0.002 sec
     gradient                   ...        0 min,  0.001 sec
 * total energy  :   -33.3106449 Eh     change       -0.7949552E-10 Eh
   gradient norm :     4.0997831 Eh/α   predicted     0.0000000E+00 (-100.00%)
   displ. norm   :     0.6317694 α      lambda       -0.2491235E+01
   maximum displ.:     0.5041735 α      in ANC's #40, #26, #38, ...

........................................................................
.............................. CYCLE    2 ..............................
........................................................................
   1    -35.4262309 -0.354262E+02  0.300E+00    4.06       0.0  T
   2    -35.4375783 -0.113475E-01  0.177E+00    3.77       1.0  T
   3    -35.4408137 -0.323536E-02  0.961E-01    3.95       1.0  T
   4    -35.4460196 -0.520586E-02  0.277E-01    3.83       1.0  T
   5    -35.4463400 -0.320474E-03  0.136E-01    3.85       1.0  T
   6    -35.4464442 -0.104150E-03  0.179E-02    3.86       1.4  T
   7    -35.4464454 -0.122348E-05  0.848E-03    3.85       2.9  T
   8    -35.4464455 -0.739958E-07  0.478E-03    3.85       5.2  T
   9    -35.4464455 -0.338371E-07  0.140E-03    3.85      17.9  T
  10    -35.4464455 -0.152333E-07  0.611E-04    3.85      40.9  T
  11    -35.4464455 -0.115963E-08  0.141E-04    3.85     177.7  T
     SCC iter.                  ...        0 min,  0.006 sec
     gradient                   ...        0 min,  0.001 sec
 * total energy  :   -34.6023888 Eh     change       -0.1291744E+01 Eh
   gradient norm :     0.9794705 Eh/α   predicted    -0.1742784E+01 (  34.92%)
   displ. norm   :     0.4716234 α      lambda       -0.3811616E+00
   maximum displ.:     0.2896185 α      in ANC's #26, #24, #28, ...

........................................................................
.............................. CYCLE    3 ..............................
........................................................................
   1    -35.5035454 -0.355035E+02  0.126E+00    3.49       0.0  T
   2    -35.5068389 -0.329353E-02  0.842E-01    3.37       1.0  T
   3    -35.5071352 -0.296352E-03  0.356E-01    3.41       1.0  T
   4    -35.5076667 -0.531447E-03  0.171E-01    3.37       1.0  T
   5    -35.5078299 -0.163258E-03  0.683E-02    3.38       1.0  T
   6    -35.5078557 -0.257645E-04  0.149E-02    3.38       1.7  T
   7    -35.5078559 -0.154718E-06  0.608E-03    3.38       4.1  T
   8    -35.5078559 -0.148601E-07  0.243E-03    3.38      10.3  T
   9    -35.5078559 -0.331755E-07  0.856E-04    3.38      29.2  T
  10    -35.5078559 -0.194851E-08  0.274E-04    3.38      91.1  T
     SCC iter.                  ...        0 min,  0.006 sec
     gradient                   ...        0 min,  0.001 sec
 * total energy  :   -34.8794125 Eh     change       -0.2770238E+00 Eh
   gradient norm :     0.5372222 Eh/α   predicted    -0.2329716E+00 ( -15.90%)
   displ. norm   :     0.4534233 α      lambda       -0.1851029E+00
   maximum displ.:     0.2600447 α      in ANC's #26, #24, #14, ...

........................................................................
.............................. CYCLE    4 ..............................
........................................................................
   1    -35.5235701 -0.355236E+02  0.106E+00    3.07       0.0  T
   2    -35.5248013 -0.123119E-02  0.742E-01    3.02       1.0  T
   3    -35.5241073  0.693983E-03  0.339E-01    3.03       1.0  T
   4    -35.5255994 -0.149200E-02  0.118E-01    3.02       1.0  T
   5    -35.5256696 -0.702405E-04  0.500E-02    3.02       1.0  T
   6    -35.5256815 -0.118886E-04  0.108E-02    3.02       2.3  T
   7    -35.5256815 -0.618341E-08  0.522E-03    3.02       4.8  T
   8    -35.5256816 -0.776046E-07  0.258E-03    3.02       9.7  T
   9    -35.5256816 -0.357094E-07  0.705E-04    3.02      35.5  T
  10    -35.5256816 -0.190681E-09  0.364E-04    3.02      68.6  T
     SCC iter.                  ...        0 min,  0.006 sec
     gradient                   ...        0 min,  0.001 sec
 * total energy  :   -35.0136647 Eh     change       -0.1342521E+00 Eh
   gradient norm :     0.2781405 Eh/α   predicted    -0.1115794E+00 ( -16.89%)
   displ. norm   :     0.4161261 α      lambda       -0.7712383E-01
   maximum displ.:     0.1961171 α      in ANC's #26, #14, #24, ...

........................................................................
.............................. CYCLE    5 ..............................
........................................................................
   1    -35.5052811 -0.355053E+02  0.789E-01    2.76       0.0  T
   2    -35.5056820 -0.400946E-03  0.534E-01    2.74       1.0  T
   3    -35.5048271  0.854970E-03  0.282E-01    2.74       1.0  T
   4    -35.5060684 -0.124134E-02  0.702E-02    2.73       1.0  T
   5    -35.5060947 -0.263075E-04  0.333E-02    2.73       1.0  T
   6    -35.5061007 -0.600451E-05  0.667E-03    2.73       3.7  T
   7    -35.5061009 -0.178526E-06  0.368E-03    2.73       6.8  T
   8    -35.5061010 -0.501844E-07  0.115E-03    2.73      21.8  T
   9    -35.5061010 -0.471225E-09  0.550E-04    2.73      45.4  T
  10    -35.5061010 -0.253773E-08  0.186E-04    2.73     134.2  T
     SCC iter.                  ...        0 min,  0.007 sec
     gradient                   ...        0 min,  0.001 sec
 * total energy  :   -35.0668192 Eh     change       -0.5315454E-01 Eh
   gradient norm :     0.1395887 Eh/α   predicted    -0.4523933E-01 ( -14.89%)
   displ. norm   :     0.3629582 α      lambda       -0.2445338E-01
   maximum displ.:     0.1810062 α      in ANC's #5, #14, #8, ...

........................................................................
.............................. CYCLE    6 ..............................
........................................................................
   1    -35.4839607 -0.354840E+02  0.500E-01    2.61       0.0  T
   2    -35.4840275 -0.667698E-04  0.329E-01    2.61       1.0  T
   3    -35.4834676  0.559909E-03  0.201E-01    2.61       1.0  T
   4    -35.4841493 -0.681735E-03  0.318E-02    2.61       1.0  T
   5    -35.4841536 -0.433449E-05  0.165E-02    2.61       1.5  T
   6    -35.4841550 -0.137887E-05  0.325E-03    2.61       7.7  T
   7    -35.4841551 -0.818663E-07  0.136E-03    2.61      18.3  T
   8    -35.4841551 -0.415630E-08  0.880E-04    2.61      28.4  T
   9    -35.4841551 -0.254876E-08  0.255E-04    2.61      98.2  T
     SCC iter.                  ...        0 min,  0.005 sec
     gradient                   ...        0 min,  0.001 sec
 * total energy  :   -35.0835541 Eh     change       -0.1673488E-01 Eh
   gradient norm :     0.0879452 Eh/α   predicted    -0.1383740E-01 ( -17.31%)
   displ. norm   :     0.3011544 α      lambda       -0.8663775E-02
   maximum displ.:     0.1438775 α      in ANC's #5, #4, #8, ...

........................................................................
.............................. CYCLE    7 ..............................
........................................................................
   1    -35.4732409 -0.354732E+02  0.326E-01    2.58       0.0  T
   2    -35.4732558 -0.148954E-04  0.207E-01    2.58       1.0  T
   3    -35.4730342  0.221561E-03  0.128E-01    2.58       1.0  T
   4    -35.4732963 -0.262112E-03  0.165E-02    2.58       1.5  T
   5    -35.4732970 -0.688721E-06  0.600E-03    2.58       4.2  T
   6    -35.4732971 -0.502265E-07  0.269E-03    2.58       9.3  T
   7    -35.4732971 -0.618995E-07  0.125E-03    2.58      19.9  T
   8    -35.4732971 -0.211801E-08  0.541E-04    2.58      46.2  T
   9    -35.4732971 -0.139933E-08  0.280E-04    2.58      89.3  T
     SCC iter.                  ...        0 min,  0.005 sec
     gradient                   ...        0 min,  0.001 sec
 * total energy  :   -35.0896205 Eh     change       -0.6066465E-02 Eh
   gradient norm :     0.0657731 Eh/α   predicted    -0.4724750E-02 ( -22.12%)
   displ. norm   :     0.2426651 α      lambda       -0.4523487E-02
   maximum displ.:     0.1050204 α      in ANC's #4, #8, #1, ...

........................................................................
.............................. CYCLE    8 ..............................
........................................................................
   1    -35.4724386 -0.354724E+02  0.233E-01    2.59       0.0  T
   2    -35.4724781 -0.395512E-04  0.145E-01    2.60       1.0  T
   3    -35.4724422  0.358737E-04  0.842E-02    2.60       1.0  T
   4    -35.4725052 -0.629911E-04  0.261E-02    2.60       1.0  T
   5    -35.4725115 -0.627991E-05  0.926E-03    2.60       2.7  T
   6    -35.4725124 -0.903835E-06  0.326E-03    2.60       7.7  T
   7    -35.4725125 -0.425526E-07  0.169E-03    2.60      14.8  T
   8    -35.4725125 -0.979932E-08  0.667E-04    2.60      37.5  T
   9    -35.4725125 -0.862052E-09  0.226E-04    2.60     110.5  T
     SCC iter.                  ...        0 min,  0.005 sec
     gradient                   ...        0 min,  0.001 sec
 * total energy  :   -35.0928657 Eh     change       -0.3245118E-02 Eh
   gradient norm :     0.0457295 Eh/α   predicted    -0.2394928E-02 ( -26.20%)
   displ. norm   :     0.1790163 α      lambda       -0.2930129E-02
   maximum displ.:     0.0690690 α      in ANC's #1, #4, #8, ...

........................................................................
.............................. CYCLE    9 ..............................
........................................................................
   1    -35.4800157 -0.354800E+02  0.173E-01    2.63       0.0  T
   2    -35.4800959 -0.802333E-04  0.108E-01    2.64       1.0  T
   3    -35.4801236 -0.277176E-04  0.607E-02    2.64       1.0  T
   4    -35.4801296 -0.603497E-05  0.276E-02    2.64       1.0  T
   5    -35.4801365 -0.685714E-05  0.101E-02    2.64       2.5  T
   6    -35.4801374 -0.932718E-06  0.368E-03    2.64       6.8  T
   7    -35.4801375 -0.982299E-07  0.165E-03    2.64      15.2  T
   8    -35.4801375 -0.617016E-08  0.516E-04    2.64      48.4  T
   9    -35.4801375 -0.461803E-09  0.170E-04    2.64     147.3  T
     SCC iter.                  ...        0 min,  0.005 sec
     gradient                   ...        0 min,  0.001 sec
 * total energy  :   -35.0948141 Eh     change       -0.1948438E-02 Eh
   gradient norm :     0.0218701 Eh/α   predicted    -0.1512013E-02 ( -22.40%)
   displ. norm   :     0.0849121 α      lambda       -0.9575635E-03
   maximum displ.:     0.0441864 α      in ANC's #1, #5, #7, ...

........................................................................
.............................. CYCLE   10 ..............................
........................................................................
   1    -35.4884741 -0.354885E+02  0.923E-02    2.66       0.0  T
   2    -35.4885081 -0.339931E-04  0.588E-02    2.66       1.0  T
   3    -35.4885204 -0.123296E-04  0.318E-02    2.67       1.0  T
   4    -35.4885204 -0.101927E-07  0.143E-02    2.67       1.7  T
   5    -35.4885224 -0.195578E-05  0.596E-03    2.67       4.2  T
   6    -35.4885226 -0.255983E-06  0.212E-03    2.67      11.8  T
   7    -35.4885227 -0.434352E-07  0.734E-04    2.67      34.1  T
   8    -35.4885227 -0.165056E-08  0.199E-04    2.67     125.6  T
     SCC iter.                  ...        0 min,  0.005 sec
     gradient                   ...        0 min,  0.001 sec
 * total energy  :   -35.0954091 Eh     change       -0.5950311E-03 Eh
   gradient norm :     0.0104529 Eh/α   predicted    -0.4822318E-03 ( -18.96%)
   displ. norm   :     0.0581880 α      lambda       -0.2267147E-03
   maximum displ.:     0.0380458 α      in ANC's #1, #5, #4, ...

........................................................................
.............................. CYCLE   11 ..............................
........................................................................
   1    -35.4915367 -0.354915E+02  0.598E-02    2.67       0.0  T
   2    -35.4915394 -0.263982E-05  0.351E-02    2.67       1.0  T
   3    -35.4915381  0.131823E-05  0.171E-02    2.67       1.5  T
   4    -35.4915403 -0.223979E-05  0.479E-03    2.67       5.2  T
   5    -35.4915405 -0.197772E-06  0.224E-03    2.67      11.1  T
   6    -35.4915405 -0.392061E-07  0.715E-04    2.67      35.0  T
   7    -35.4915405 -0.472200E-08  0.315E-04    2.67      79.3  T
     SCC iter.                  ...        0 min,  0.004 sec
     gradient                   ...        0 min,  0.001 sec
 * total energy  :   -35.0955685 Eh     change       -0.1593865E-03 Eh
   gradient norm :     0.0085476 Eh/α   predicted    -0.1137431E-03 ( -28.64%)
   displ. norm   :     0.0647992 α      lambda       -0.1384733E-03
   maximum displ.:     0.0491688 α      in ANC's #1, #5, #10, ...

........................................................................
.............................. CYCLE   12 ..............................
........................................................................
   1    -35.4920948 -0.354921E+02  0.602E-02    2.67       0.0  T
   2    -35.4920951 -0.317865E-06  0.341E-02    2.67       1.0  T
   3    -35.4920944  0.697188E-06  0.856E-03    2.67       2.9  T
   4    -35.4920952 -0.805449E-06  0.351E-03    2.67       7.1  T
   5    -35.4920952 -0.497259E-07  0.157E-03    2.67      15.9  T
   6    -35.4920953 -0.248586E-07  0.564E-04    2.67      44.3  T
   7    -35.4920953 -0.387537E-09  0.321E-04    2.67      77.9  T
     SCC iter.                  ...        0 min,  0.004 sec
     gradient                   ...        0 min,  0.001 sec
 * total energy  :   -35.0956610 Eh     change       -0.9253041E-04 Eh
   gradient norm :     0.0067294 Eh/α   predicted    -0.6952506E-04 ( -24.86%)
   displ. norm   :     0.0459695 α      lambda       -0.6139773E-04
   maximum displ.:     0.0398380 α      in ANC's #1, #5, #14, ...

........................................................................
.............................. CYCLE   13 ..............................
........................................................................
   1    -35.4913070 -0.354913E+02  0.355E-02    2.67       0.0  T
   2    -35.4913073 -0.238257E-06  0.199E-02    2.67       1.3  T
   3    -35.4913072  0.120069E-06  0.519E-03    2.67       4.8  T
   4    -35.4913073 -0.189436E-06  0.195E-03    2.67      12.9  T
   5    -35.4913073  0.601668E-08  0.115E-03    2.67      21.7  T
   6    -35.4913074 -0.143155E-07  0.373E-04    2.67      67.0  T
   7    -35.4913074 -0.213163E-12  0.113E-04    2.67     221.6  T
     SCC iter.                  ...        0 min,  0.004 sec
     gradient                   ...        0 min,  0.001 sec
 * total energy  :   -35.0957050 Eh     change       -0.4393235E-04 Eh
   gradient norm :     0.0054478 Eh/α   predicted    -0.3076545E-04 ( -29.97%)
   displ. norm   :     0.0420269 α      lambda       -0.4703398E-04
   maximum displ.:     0.0370989 α      in ANC's #1, #14, #5, ...

........................................................................
.............................. CYCLE   14 ..............................
........................................................................
   1    -35.4903271 -0.354903E+02  0.274E-02    2.66       0.0  T
   2    -35.4903274 -0.294747E-06  0.155E-02    2.66       1.6  T
   3    -35.4903270  0.421311E-06  0.793E-03    2.66       3.2  T
   4    -35.4903275 -0.544997E-06  0.224E-03    2.66      11.2  T
   5    -35.4903276 -0.370360E-07  0.103E-03    2.66      24.4  T
   6    -35.4903276 -0.497320E-08  0.323E-04    2.66      77.4  T
   7    -35.4903276 -0.158209E-09  0.196E-04    2.66     127.7  T
     SCC iter.                  ...        0 min,  0.004 sec
     gradient                   ...        0 min,  0.001 sec
 * total energy  :   -35.0957382 Eh     change       -0.3325591E-04 Eh
   gradient norm :     0.0045882 Eh/α   predicted    -0.2355900E-04 ( -29.16%)
   displ. norm   :     0.0347417 α      lambda       -0.3521336E-04
   maximum displ.:     0.0270022 α      in ANC's #1, #3, #11, ...

........................................................................
.............................. CYCLE   15 ..............................
........................................................................
   1    -35.4898137 -0.354898E+02  0.233E-02    2.66       0.0  T
   2    -35.4898138 -0.143531E-06  0.138E-02    2.66       1.8  T
   3    -35.4898132  0.625383E-06  0.904E-03    2.66       2.8  T
   4    -35.4898141 -0.875093E-06  0.163E-03    2.66      15.3  T
   5    -35.4898141 -0.170891E-07  0.768E-04    2.66      32.5  T
   6    -35.4898141 -0.322535E-08  0.241E-04    2.66     103.7  T
     SCC iter.                  ...        0 min,  0.003 sec
     gradient                   ...        0 min,  0.001 sec
 * total energy  :   -35.0957637 Eh     change       -0.2542472E-04 Eh
   gradient norm :     0.0038887 Eh/α   predicted    -0.1762690E-04 ( -30.67%)
   displ. norm   :     0.0323698 α      lambda       -0.3002205E-04
   maximum displ.:     0.0165601 α      in ANC's #1, #3, #2, ...

........................................................................
.............................. CYCLE   16 ..............................
........................................................................
   1    -35.4899166 -0.354899E+02  0.253E-02    2.66       0.0  T
   2    -35.4899167 -0.114662E-06  0.151E-02    2.66       1.7  T
   3    -35.4899157  0.955283E-06  0.102E-02    2.66       2.4  T
   4    -35.4899171 -0.131535E-05  0.150E-03    2.66      16.6  T
   5    -35.4899171 -0.515510E-08  0.625E-04    2.66      40.0  T
   6    -35.4899171 -0.199645E-08  0.244E-04    2.66     102.3  T
     SCC iter.                  ...        0 min,  0.004 sec
     gradient                   ...        0 min,  0.001 sec
 * total energy  :   -35.0957846 Eh     change       -0.2095891E-04 Eh
   gradient norm :     0.0029867 Eh/α   predicted    -0.1502782E-04 ( -28.30%)
   displ. norm   :     0.0271886 α      lambda       -0.1856811E-04
   maximum displ.:     0.0162496 α      in ANC's #3, #2, #7, ...

........................................................................
.............................. CYCLE   17 ..............................
........................................................................
   1    -35.4904600 -0.354905E+02  0.211E-02    2.66       0.0  T
   2    -35.4904602 -0.193395E-06  0.123E-02    2.66       2.0  T
   3    -35.4904596  0.564732E-06  0.747E-03    2.66       3.3  T
   4    -35.4904604 -0.734360E-06  0.177E-03    2.66      14.1  T
   5    -35.4904604 -0.188275E-07  0.562E-04    2.66      44.5  T
   6    -35.4904604 -0.781718E-09  0.215E-04    2.66     116.2  T
     SCC iter.                  ...        0 min,  0.003 sec
     gradient                   ...        0 min,  0.001 sec
 * total energy  :   -35.0957973 Eh     change       -0.1269018E-04 Eh
   gradient norm :     0.0022610 Eh/α   predicted    -0.9289604E-05 ( -26.80%)
   displ. norm   :     0.0211558 α      lambda       -0.9559973E-05
   maximum displ.:     0.0129944 α      in ANC's #3, #2, #7, ...

........................................................................
.............................. CYCLE   18 ..............................
........................................................................
   1    -35.4909589 -0.354910E+02  0.142E-02    2.66       0.0  T
   2    -35.4909591 -0.169037E-06  0.784E-03    2.66       3.2  T
   3    -35.4909590  0.720461E-07  0.343E-03    2.66       7.3  T
   4    -35.4909591 -0.777722E-07  0.164E-03    2.66      15.2  T
   5    -35.4909591 -0.309610E-07  0.453E-04    2.66      55.2  T
   6    -35.4909591 -0.883901E-09  0.165E-04    2.66     151.6  T
     SCC iter.                  ...        0 min,  0.004 sec
     gradient                   ...        0 min,  0.002 sec
 * total energy  :   -35.0958040 Eh     change       -0.6659813E-05 Eh
   gradient norm :     0.0019496 Eh/α   predicted    -0.4783903E-05 ( -28.17%)
   displ. norm   :     0.0273542 α      lambda       -0.6169470E-05
   maximum displ.:     0.0159995 α      in ANC's #2, #3, #6, ...

........................................................................
.............................. CYCLE   19 ..............................
........................................................................
   1    -35.4913616 -0.354914E+02  0.169E-02    2.66       0.0  T
   2    -35.4913618 -0.226554E-06  0.916E-03    2.66       2.7  T
   3    -35.4913618  0.338649E-07  0.377E-03    2.66       6.6  T
   4    -35.4913618 -0.430510E-07  0.164E-03    2.66      15.2  T
   5    -35.4913619 -0.232350E-07  0.555E-04    2.66      45.0  T
   6    -35.4913619 -0.132736E-08  0.221E-04    2.66     113.1  T
     SCC iter.                  ...        0 min,  0.003 sec
     gradient                   ...        0 min,  0.001 sec
 * total energy  :   -35.0958095 Eh     change       -0.5530832E-05 Eh
   gradient norm :     0.0019584 Eh/α   predicted    -0.3084914E-05 ( -44.22%)
   displ. norm   :     0.0150452 α      lambda       -0.3970330E-05
   maximum displ.:     0.0092584 α      in ANC's #2, #6, #3, ...

........................................................................
.............................. CYCLE   20 ..............................
........................................................................
   1    -35.4912211 -0.354912E+02  0.948E-03    2.66       0.0  T
   2    -35.4912212 -0.216483E-07  0.551E-03    2.66       4.5  T
   3    -35.4912210  0.128639E-06  0.338E-03    2.66       7.4  T
   4    -35.4912212 -0.159649E-06  0.730E-04    2.66      34.2  T
   5    -35.4912212 -0.798508E-09  0.299E-04    2.66      83.6  T
     SCC iter.                  ...        0 min,  0.003 sec
     gradient                   ...        0 min,  0.001 sec
 * total energy  :   -35.0958144 Eh     change       -0.4937796E-05 Eh
   gradient norm :     0.0017651 Eh/α   predicted    -0.1984947E-05 ( -59.80%)
   displ. norm   :     0.0460831 α      lambda       -0.9528419E-05
   maximum displ.:     0.0304159 α      in ANC's #2, #6, #3, ...
 * RMSD in coord.:     0.6012104 α      energy gain  -0.1785170E+01 Eh

generating ANC from model Hessian ...
Using Lindh-Hessian (1995)
 Shifting diagonal of input Hessian by   7.576997723748152E-003
 Lowest  eigenvalues of input Hessian
    0.000000    0.000000    0.000000    0.000000    0.000000    0.000000
    0.010000    0.011860    0.014025    0.021068    0.026394    0.027249
    0.043352    0.050813    0.051900    0.064143    0.068292    0.095761
 Highest eigenvalues
    1.748052    1.796480    1.850496    2.015384    2.019258    2.081843
 

........................................................................
.............................. CYCLE   21 ..............................
........................................................................
   1    -35.4908140 -0.354908E+02  0.247E-02    2.66       0.0  T
   2    -35.4908141 -0.113706E-06  0.140E-02    2.66       1.8  T
   3    -35.4908136  0.479629E-06  0.636E-03    2.66       3.9  T
   4    -35.4908142 -0.569171E-06  0.181E-03    2.66      13.8  T
   5    -35.4908142 -0.378064E-08  0.776E-04    2.66      32.2  T
   6    -35.4908142 -0.499148E-08  0.220E-04    2.66     113.6  T
     SCC iter.                  ...        0 min,  0.003 sec
     gradient                   ...        0 min,  0.001 sec
 * total energy  :   -35.0958242 Eh     change       -0.9794698E-05 Eh
   gradient norm :     0.0020813 Eh/α   predicted     0.0000000E+00 (-100.00%)
   displ. norm   :     0.0261611 α      lambda       -0.2357127E-04
   maximum displ.:     0.0153935 α      in ANC's #1, #9, #2, ...

........................................................................
.............................. CYCLE   22 ..............................
........................................................................
   1    -35.4909280 -0.354909E+02  0.191E-02    2.66       0.0  T
   2    -35.4909281 -0.103195E-06  0.964E-03    2.66       2.6  T
   3    -35.4909281  0.545679E-07  0.291E-03    2.66       8.6  T
   4    -35.4909281 -0.656966E-07  0.153E-03    2.66      16.3  T
   5    -35.4909281 -0.164872E-07  0.458E-04    2.66      54.6  T
   6    -35.4909281 -0.498979E-09  0.111E-04    2.66     225.3  T
     SCC iter.                  ...        0 min,  0.003 sec
     gradient                   ...        0 min,  0.001 sec
 * total energy  :   -35.0958386 Eh     change       -0.1434336E-04 Eh
   gradient norm :     0.0010382 Eh/α   predicted    -0.1179480E-04 ( -17.77%)
   displ. norm   :     0.0472141 α      lambda       -0.9013167E-05
   maximum displ.:     0.0385039 α      in ANC's #1, #2, #9, ...

........................................................................
.............................. CYCLE   23 ..............................
........................................................................
   1    -35.4909833 -0.354910E+02  0.290E-02    2.66       0.0  T
   2    -35.4909835 -0.159771E-06  0.159E-02    2.66       1.6  T
   3    -35.4909834  0.121801E-06  0.416E-03    2.66       6.0  T
   4    -35.4909835 -0.123240E-06  0.218E-03    2.66      11.5  T
   5    -35.4909835 -0.408889E-07  0.609E-04    2.66      41.1  T
   6    -35.4909835 -0.125721E-08  0.146E-04    2.66     170.9  T
     SCC iter.                  ...        0 min,  0.004 sec
     gradient                   ...        0 min,  0.001 sec
 * total energy  :   -35.0958481 Eh     change       -0.9520013E-05 Eh
   gradient norm :     0.0005924 Eh/α   predicted    -0.4512708E-05 ( -52.60%)
   displ. norm   :     0.0477792 α      lambda       -0.6655326E-05
   maximum displ.:     0.0369008 α      in ANC's #1, #2, #6, ...

........................................................................
.............................. CYCLE   24 ..............................
........................................................................
   1    -35.4909157 -0.354909E+02  0.253E-02    2.66       0.0  T
   2    -35.4909158 -0.751475E-07  0.143E-02    2.66       1.7  T
   3    -35.4909158  0.168656E-07  0.252E-03    2.66       9.9  T
   4    -35.4909158 -0.253520E-07  0.146E-03    2.66      17.1  T
   5    -35.4909158 -0.150117E-07  0.443E-04    2.66      56.4  T
   6    -35.4909158 -0.146855E-08  0.182E-04    2.66     137.2  T
     SCC iter.                  ...        0 min,  0.003 sec
     gradient                   ...        0 min,  0.001 sec
 * total energy  :   -35.0958566 Eh     change       -0.8554342E-05 Eh
   gradient norm :     0.0008741 Eh/α   predicted    -0.3332168E-05 ( -61.05%)
   displ. norm   :     0.0584449 α      lambda       -0.6775530E-05
   maximum displ.:     0.0432578 α      in ANC's #1, #2, #6, ...

........................................................................
.............................. CYCLE   25 ..............................
........................................................................
   1    -35.4908451 -0.354908E+02  0.304E-02    2.66       0.0  T
   2    -35.4908452 -0.920090E-07  0.172E-02    2.66       1.5  T
   3    -35.4908453 -0.127149E-07  0.254E-03    2.66       9.8  T
   4    -35.4908452  0.235700E-07  0.182E-03    2.66      13.7  T
   5    -35.4908453 -0.450653E-07  0.299E-04    2.66      83.5  T
   6    -35.4908453 -0.422304E-09  0.171E-04    2.66     146.4  T
     SCC iter.                  ...        0 min,  0.004 sec
     gradient                   ...        0 min,  0.001 sec
 * total energy  :   -35.0958652 Eh     change       -0.8581066E-05 Eh
   gradient norm :     0.0008186 Eh/α   predicted    -0.3394434E-05 ( -60.44%)
   displ. norm   :     0.0677582 α      lambda       -0.5898397E-05
   maximum displ.:     0.0498153 α      in ANC's #1, #2, #6, ...

........................................................................
.............................. CYCLE   26 ..............................
........................................................................
   1    -35.4908244 -0.354908E+02  0.353E-02    2.66       0.0  T
   2    -35.4908245 -0.132862E-06  0.199E-02    2.66       1.3  T
   3    -35.4908245 -0.202728E-07  0.299E-03    2.66       8.3  T
   4    -35.4908245  0.230502E-07  0.204E-03    2.66      12.3  T
   5    -35.4908245 -0.479304E-07  0.358E-04    2.66      69.8  T
   6    -35.4908245 -0.718927E-09  0.191E-04    2.66     130.7  T
     SCC iter.                  ...        0 min,  0.004 sec
     gradient                   ...        0 min,  0.001 sec
 * total energy  :   -35.0958723 Eh     change       -0.7072592E-05 Eh
   gradient norm :     0.0005645 Eh/α   predicted    -0.2953673E-05 ( -58.24%)
   displ. norm   :     0.0622308 α      lambda       -0.3600571E-05
   maximum displ.:     0.0463660 α      in ANC's #1, #2, #9, ...

........................................................................
.............................. CYCLE   27 ..............................
........................................................................
   1    -35.4908658 -0.354909E+02  0.331E-02    2.66       0.0  T
   2    -35.4908659 -0.119111E-06  0.186E-02    2.66       1.3  T
   3    -35.4908660 -0.322320E-07  0.262E-03    2.66       9.6  T
   4    -35.4908660  0.355802E-08  0.957E-04    2.66      26.1  T
   5    -35.4908660 -0.734440E-08  0.358E-04    2.66      69.8  T
     SCC iter.                  ...        0 min,  0.003 sec
     gradient                   ...        0 min,  0.001 sec
 * total energy  :   -35.0958762 Eh     change       -0.3932113E-05 Eh
   gradient norm :     0.0003029 Eh/α   predicted    -0.1802869E-05 ( -54.15%)
   displ. norm   :     0.0338793 α      lambda       -0.1123550E-05
   maximum displ.:     0.0266909 α      in ANC's #1, #2, #9, ...

   *** GEOMETRY OPTIMIZATION CONVERGED AFTER 27 ITERATIONS ***

------------------------------------------------------------------------
 total energy gain   :        -1.7852313 Eh    -1120.2496 kcal/mol
 total RMSD          :         0.6096968 a0        0.3226 Å
 total power (kW/mol):      -173.5971949 (step)********** (real)
------------------------------------------------------------------------

 ANCopt (total)                0 d,  0 h,  0 min,  0.180 sec
 optimizer setup                ...        0 min,  0.000 sec (  0.038%)
 model hessian                  ...        0 min,  0.002 sec (  1.174%)
 ANC generation                 ...        0 min,  0.000 sec (  0.266%)
 coordinate transformation      ...        0 min,  0.000 sec (  0.065%)
 single point calculation       ...        0 min,  0.172 sec ( 95.328%)
 optimization log               ...        0 min,  0.002 sec (  1.013%)
 hessian update                 ...        0 min,  0.000 sec (  0.203%)
 rational function              ...        0 min,  0.003 sec (  1.476%)

================
 final structure:
================
16
 xtb: 6.5.0 (746241f)
C           -0.55074532088078        0.88217365482416       -0.00716313287570
C            0.02062535245480       -0.34952947736998        0.04362971468314
F            3.00019805887275        3.80251475952288       -0.02702155746926
H            6.80574347414682        1.33207435640475        0.20033716171761
S            4.60599411700134        0.30588966914320        0.16567466228281
C            5.76327009905524        1.57395748692492        0.15512635159385
S            0.60654303522477        2.15033204737541       -0.01593607415633
C            5.19238304219217        2.80504341630963        0.08654854189924
C            1.42389510600688       -0.26286761403031        0.07622366132568
H           -1.59351750065758        1.12473876814540       -0.04049545463177
H            5.72706251073849        3.73613607560588        0.06738094765980
C            1.92358159267784        1.01843627509431        0.05075661206710
C            3.78945148755695        2.71803719415687        0.04274693933773
F            2.21351458514221       -1.34808341130552        0.12823134757295
C            3.28957912596633        1.43696357087053        0.07658982608466
H           -0.51367876549825       -1.28091677167211        0.05767045290849
 
 Bond Distances (Angstroems)
 ---------------------------
C1-C2=1.3587         C1-S7=1.7169         C1-H10=1.0711        C2-C1=1.3587         C2-C9=1.4063         C2-H16=1.0739        
F3-C13=1.3431        H4-C6=1.0711         S5-C6=1.7168         S5-C15=1.7379        C6-H4=1.0711         C6-S5=1.7168         
C6-C8=1.3587         S7-C1=1.7169         S7-C12=1.7379        C8-C6=1.3587         C8-H11=1.0739        C8-C13=1.4063        
C9-C2=1.4063         C9-C12=1.3755        C9-F14=1.3431        H10-C1=1.0711        H11-C8=1.0739        C12-S7=1.7379        
C12-C9=1.3755        C12-C15=1.4289       C13-F3=1.3431        C13-C8=1.4063        C13-C15=1.3756       F14-C9=1.3431        
C15-S5=1.7379        C15-C12=1.4289       C15-C13=1.3756       H16-C2=1.0739        
 C  H  Rav=1.0725 sigma=0.0014  Rmin=1.0711  Rmax=1.0739     4
 C  C  Rav=1.3872 sigma=0.0250  Rmin=1.3587  Rmax=1.4289     7
 F  C  Rav=1.3431 sigma=0.0000  Rmin=1.3431  Rmax=1.3431     2
 S  C  Rav=1.7274 sigma=0.0105  Rmin=1.7168  Rmax=1.7379     4
 
 selected bond angles (degree)
 --------------------
S7-C1-C2=112.73                H10-C1-C2=128.01               H10-C1-S7=119.26               C9-C2-C1=111.38                
H16-C2-C1=125.28               H16-C2-C9=123.34               C15-S5-C6= 91.69               S5-C6-H4=119.28                
C8-C6-H4=128.00                C8-C6-S5=112.73                C12-S7-C1= 91.69               H11-C8-C6=125.26               
C13-C8-C6=111.39               C13-C8-H11=123.35              C12-C9-C2=114.80               F14-C9-C2=122.53               
F14-C9-C12=122.67              
 
 selected dihedral angles (degree)
 ---------------------------------
C9-C2-C1-S7=  0.00            C9-C2-C1-H10=180.00           H16-C2-C1-S7=180.02           H16-C2-C1-H10=  0.00          
H4-C6-S5-C15=179.98           C8-C6-S5-C15=359.96           C12-S7-C1-C2=  0.00           C12-S7-C1-H10=180.00          
H11-C8-C6-H4=  0.00           H11-C8-C6-S5=180.04           C13-C8-C6-H4=180.03           C13-C8-C6-S5=  0.05           
C12-C9-C2-C1=  0.00           C12-C9-C2-H16=179.99          F14-C9-C2-C1=180.00           F14-C9-C2-H16=  0.00          
           -------------------------------------------------
          |                Final Singlepoint                |
           -------------------------------------------------

          ...................................................
          :                      SETUP                      :
          :.................................................:
          :  # basis functions                  64          :
          :  # atomic orbitals                  62          :
          :  # shells                           30          :
          :  # electrons                        62          :
          :  max. iterations                   250          :
          :  Hamiltonian                  GFN2-xTB          :
          :  restarted?                      false          :
          :  GBSA solvation                  false          :
          :  PC potential                    false          :
          :  electronic temp.          300.0000000     K    :
          :  accuracy                    1.0000000          :
          :  -> integral cutoff          0.2500000E+02      :
          :  -> integral neglect         0.1000000E-07      :
          :  -> SCF convergence          0.1000000E-05 Eh   :
          :  -> wf. convergence          0.1000000E-03 e    :
          :  Broyden damping             0.4000000          :
          ...................................................

 iter      E             dE          RMSdq      gap      omega  full diag
   1    -35.4908660 -0.354909E+02  0.155E-04    2.66       0.0  T
   2    -35.4908660 -0.935074E-11  0.102E-04    2.66     244.3  T
   3    -35.4908660 -0.798650E-11  0.732E-05    2.66     341.5  T

   *** convergence criteria satisfied after 3 iterations ***

         #    Occupation            Energy/Eh            Energy/eV
      -------------------------------------------------------------
         1        2.0000           -0.8255852             -22.4653
       ...           ...                  ...                  ...
        25        2.0000           -0.4714586             -12.8290
        26        2.0000           -0.4696279             -12.7792
        27        2.0000           -0.4569447             -12.4341
        28        2.0000           -0.4431633             -12.0591
        29        2.0000           -0.4110210             -11.1844
        30        2.0000           -0.4098196             -11.1518
        31        2.0000           -0.3849489             -10.4750 (HOMO)
        32                         -0.2872359              -7.8161 (LUMO)
        33                         -0.2380527              -6.4777
        34                         -0.2247048              -6.1145
        35                         -0.2133484              -5.8055
        36                         -0.1938705              -5.2755
       ...                                ...                  ...
        62                          0.6814814              18.5441
      -------------------------------------------------------------
                  HL-Gap            0.0977130 Eh            2.6589 eV
             Fermi-level           -0.3360924 Eh           -9.1455 eV

 SCC (total)                   0 d,  0 h,  0 min,  0.004 sec
 SCC setup                      ...        0 min,  0.000 sec (  1.549%)
 Dispersion                     ...        0 min,  0.000 sec (  1.242%)
 classical contributions        ...        0 min,  0.000 sec (  0.162%)
 integral evaluation            ...        0 min,  0.001 sec ( 13.820%)
 iterations                     ...        0 min,  0.002 sec ( 46.706%)
 molecular gradient             ...        0 min,  0.001 sec ( 33.333%)
 printout                       ...        0 min,  0.000 sec (  2.914%)

         :::::::::::::::::::::::::::::::::::::::::::::::::::::
         ::                     SUMMARY                     ::
         :::::::::::::::::::::::::::::::::::::::::::::::::::::
         :: total energy             -35.095876233911 Eh    ::
         :: gradient norm              0.000303649793 Eh/a0 ::
         :: HOMO-LUMO gap              2.658906910080 eV    ::
         ::.................................................::
         :: SCC energy               -35.490865963793 Eh    ::
         :: -> isotropic ES            0.021627134385 Eh    ::
         :: -> anisotropic ES          0.000480103122 Eh    ::
         :: -> anisotropic XC          0.002293771787 Eh    ::
         :: -> dispersion             -0.018425444586 Eh    ::
         :: repulsion energy           0.394998286465 Eh    ::
         :: add. restraining           0.000000000000 Eh    ::
         :: total charge              -0.000000000000 e     ::
         :::::::::::::::::::::::::::::::::::::::::::::::::::::

           -------------------------------------------------
          |                Property Printout                |
           -------------------------------------------------

    * Orbital Energies and Occupations

         #    Occupation            Energy/Eh            Energy/eV
      -------------------------------------------------------------
         1        2.0000           -0.8255852             -22.4653
       ...           ...                  ...                  ...
        19        2.0000           -0.5119833             -13.9318
        20        2.0000           -0.5072321             -13.8025
        21        2.0000           -0.4965283             -13.5112
        22        2.0000           -0.4836509             -13.1608
        23        2.0000           -0.4834839             -13.1563
        24        2.0000           -0.4800915             -13.0640
        25        2.0000           -0.4714586             -12.8290
        26        2.0000           -0.4696279             -12.7792
        27        2.0000           -0.4569447             -12.4341
        28        2.0000           -0.4431633             -12.0591
        29        2.0000           -0.4110210             -11.1844
        30        2.0000           -0.4098196             -11.1518
        31        2.0000           -0.3849489             -10.4750 (HOMO)
        32                         -0.2872359              -7.8161 (LUMO)
        33                         -0.2380527              -6.4777
        34                         -0.2247048              -6.1145
        35                         -0.2133484              -5.8055
        36                         -0.1938705              -5.2755
        37                         -0.1641351              -4.4663
        38                         -0.1491128              -4.0576
        39                         -0.1172182              -3.1897
        40                         -0.0256165              -0.6971
        41                         -0.0063405              -0.1725
        42                          0.0052001               0.1415
       ...                                ...                  ...
        62                          0.6814814              18.5441
      -------------------------------------------------------------
                  HL-Gap            0.0977130 Eh            2.6589 eV
             Fermi-level           -0.3360924 Eh           -9.1455 eV

     #   Z          covCN         q      C6AA      α(0)
     1   6 C        2.952    -0.029    28.731     8.792
     2   6 C        3.091    -0.062    29.434     8.892
     3   9 F        0.786    -0.213    11.366     3.982
     4   1 H        0.927     0.063     2.169     2.303
     5  16 S        2.341     0.033   139.733    19.895
     6   6 C        2.952    -0.029    28.731     8.792
     7  16 S        2.341     0.033   139.734    19.895
     8   6 C        3.091    -0.062    29.434     8.892
     9   6 C        3.004     0.148    24.778     8.165
    10   1 H        0.926     0.063     2.169     2.303
    11   1 H        0.926     0.064     2.152     2.294
    12   6 C        3.006    -0.003    28.078     8.692
    13   6 C        3.004     0.148    24.777     8.165
    14   9 F        0.786    -0.213    11.366     3.982
    15   6 C        3.006    -0.003    28.078     8.692
    16   1 H        0.926     0.064     2.152     2.294

 Mol. C6AA /au·bohr⁶  :       6096.055780
 Mol. C8AA /au·bohr⁸  :     192665.005615
 Mol. α(0) /au        :        126.032423


Wiberg/Mayer (AO) data.
largest (>0.10) Wiberg bond orders for each atom

 ---------------------------------------------------------------------------
     #   Z sym  total        # sym  WBO       # sym  WBO       # sym  WBO
 ---------------------------------------------------------------------------
     1   6 C    3.939 --     2 C    1.598     7 S    1.208    10 H    0.969
     2   6 C    3.984 --     1 C    1.598     9 C    1.270    16 H    0.962
     3   9 F    1.113 --    13 C    0.961
     4   1 H    0.996 --     6 C    0.969
     5  16 S    2.641 --     6 C    1.208    15 C    1.140
     6   6 C    3.939 --     8 C    1.598     5 S    1.208     4 H    0.969
     7  16 S    2.641 --     1 C    1.208    12 C    1.140
     8   6 C    3.984 --     6 C    1.598    13 C    1.270    11 H    0.962
     9   6 C    3.877 --    12 C    1.449     2 C    1.270    14 F    0.961
    10   1 H    0.996 --     1 C    0.969
    11   1 H    0.996 --     8 C    0.962
    12   6 C    3.953 --     9 C    1.449    15 C    1.157     7 S    1.140
    13   6 C    3.877 --    15 C    1.449     8 C    1.270     3 F    0.961
    14   9 F    1.113 --     9 C    0.961
    15   6 C    3.953 --    13 C    1.449    12 C    1.157     5 S    1.140
    16   1 H    0.996 --     2 C    0.962
 ---------------------------------------------------------------------------

Topologies differ in total number of bonds
Writing topology from bond orders to xtbtopo.mol

molecular dipole:
                 x           y           z       tot (Debye)
 q only:       -0.000       0.000       0.012
   full:       -0.000       0.000       0.009       0.022
molecular quadrupole (traceless):
                xx          xy          yy          xz          yz          zz
 q only:       12.322       2.439     -10.492       0.419       0.412      -1.830
  q+dip:       14.885       7.575     -12.208       0.319       0.583      -2.678
   full:       14.426       6.894     -13.152       0.288       0.645      -1.273

           -------------------------------------------------
          |                Geometry Summary                 |
           -------------------------------------------------

      molecular mass/u    :      202.2440313
   center of mass at/Å    :        2.6064943       1.2277820       0.0658138
  moments of inertia/u·Å² :        0.4051128E+03   0.7945486E+03   0.1199627E+04
rotational constants/cm⁻¹ :        0.4161219E-01   0.2121662E-01   0.1405239E-01

 * 17 selected distances

     #   Z          #   Z                                           value/Å
     1   6 C        2   6 C                                       1.3587264
     4   1 H        6   6 C                                       1.0711220 (min)
     5  16 S        6   6 C                                       1.7167980
     1   6 C        7  16 S                                       1.7168633
     6   6 C        8   6 C                                       1.3587450
     2   6 C        9   6 C                                       1.4063211
     1   6 C       10   1 H                                       1.0711316
     8   6 C       11   1 H                                       1.0738637
     7  16 S       12   6 C                                       1.7378801 (max)
     9   6 C       12   6 C                                       1.3755272
     3   9 F       13   6 C                                       1.3430862
     8   6 C       13   6 C                                       1.4063093
     9   6 C       14   9 F                                       1.3430925
     5  16 S       15   6 C                                       1.7378761
    12   6 C       15   6 C                                       1.4289094
    13   6 C       15   6 C                                       1.3755609
     2   6 C       16   1 H                                       1.0738531

 * 4 distinct bonds (by element types)

   Z      Z             #   av. dist./Å        max./Å        min./Å
   1 H    6 C           4     1.0724926     1.0738637     1.0711220
   6 C    6 C           7     1.3871570     1.4289094     1.3587264
   6 C    9 F           2     1.3430893     1.3430925     1.3430862
   6 C   16 S           4     1.7273544     1.7378801     1.7167980


optimized geometry written to: xtbopt.xyz


           -------------------------------------------------
          | TOTAL ENERGY              -35.095876233911 Eh   |
          | GRADIENT NORM               0.000303649793 Eh/α |
          | HOMO-LUMO GAP               2.658906910080 eV   |
           -------------------------------------------------
########################################################################
[WARNING] Runtime exception occurred
-1- restart_readRestart: Number of electron missmatch in restart file.
########################################################################

------------------------------------------------------------------------
 * finished run on 2022/07/14 at 15:23:24.942     
------------------------------------------------------------------------
 total:
 * wall-time:     0 d,  0 h,  0 min,  0.209 sec
 *  cpu-time:     0 d,  0 h,  0 min,  3.294 sec
 * ratio c/w:    15.786 speedup
 SCF:
 * wall-time:     0 d,  0 h,  0 min,  0.010 sec
 *  cpu-time:     0 d,  0 h,  0 min,  0.152 sec
 * ratio c/w:    15.515 speedup
 ANC optimizer:
 * wall-time:     0 d,  0 h,  0 min,  0.185 sec
 *  cpu-time:     0 d,  0 h,  0 min,  2.947 sec
 * ratio c/w:    15.950 speedup

