16
 energy: -33.310644885144 gnorm: 4.099783082858 xtb: 6.5.0 (746241f)
C           -0.40310000000000        0.81500000000000        0.02120000000000
C            0.13670000000000       -0.41360000000000        0.01230000000000
F            3.38000000000000        3.67210000000000        0.05150000000000
H            6.57940000000000        1.15950000000000        0.15640000000000
S            4.13730000000000        0.76720000000000        0.46020000000000
C            5.59480000000000        1.61010000000000        0.13360000000000
S            1.04410000000000        1.73530000000000       -0.01520000000000
C            5.08840000000000        2.84510000000000       -0.00950000000000
C            1.54220000000000       -0.12140000000000        0.01560000000000
H           -1.39920000000000        1.23970000000000        0.00360000000000
H            5.62350000000000        3.78080000000000       -0.16120000000000
C            1.88230000000000        0.96930000000000        0.06160000000000
C            3.67930000000000        2.61010000000000        0.13610000000000
F            1.86980000000000       -1.17750000000000       -0.03240000000000
C            3.32140000000000        1.52890000000000        0.23870000000000
H           -0.37300000000000       -1.37570000000000       -0.01220000000000
16
 energy: -34.602388764633 gnorm: 0.979476950262 xtb: 6.5.0 (746241f)
C           -0.41523111615542        0.82491822032540        0.01993201195754
C            0.12918782137646       -0.40506156421632        0.01189661064566
F            3.34519910351023        3.74826684766031        0.04476815646468
H            6.58077307975416        1.16041813798931        0.15634998518948
S            4.26381033596001        0.63109785100481        0.49133531638924
C            5.60697502112688        1.60038596869951        0.13686684956637
S            0.91375993297920        1.87142983492053       -0.02386801233717
C            5.09579662956652        2.83677258479254       -0.00783283136114
C            1.52787286340889       -0.15133763891559        0.01720267699227
H           -1.40050914349599        1.23880059557163        0.00353284667748
H            5.62163305912573        3.77829334604255       -0.16120473165175
C            1.98073251061496        0.92567949312532        0.07138880134638
C            3.69412865485874        2.63891633975788        0.12792104639351
F            1.90689764032572       -1.25327771453193       -0.03467718753278
C            3.22403102577999        1.57268255626546        0.21856552630581
H           -0.37115741873610       -1.37308485849142       -0.01187706504558
16
 energy: -34.879412525731 gnorm: 0.537223848867 xtb: 6.5.0 (746241f)
C           -0.43652215689845        0.83505935318254        0.01486676504441
C            0.09616517121080       -0.40078893164127        0.00718285703544
F            3.29401879662261        3.86163447810505        0.02901174318468
H            6.59535573494617        1.16131372243334        0.15656673611900
S            4.31312306473137        0.56732917717118        0.48803734231202
C            5.62884521869873        1.59175829516380        0.14644061612865
S            0.86135703943286        1.93237702743424       -0.01242131165395
C            5.12947099930444        2.83300977793229       -0.00138120250515
C            1.48436459576576       -0.21305240227420        0.01054259741759
H           -1.41486469836021        1.23790810086249        0.00304653906026
H            5.62552555003099        3.77311915425374       -0.16277195543143
C            1.97761679601740        0.95856165574176        0.07877167328962
C            3.73915815212396        2.70043218837729        0.12432702076252
F            1.96087824013744       -1.36596750729802       -0.03162946484152
C            3.22430559918507        1.53999446540897        0.22038293608981
H           -0.37489810294894       -1.36778855485320       -0.01067289201195
16
 energy: -35.013664656480 gnorm: 0.278142326136 xtb: 6.5.0 (746241f)
C           -0.47353153154668        0.84577008361336        0.00825842080245
C            0.06777924511616       -0.39118580042131        0.00132265420129
F            3.22158524427308        3.91843894091066        0.01230344528499
H            6.63368781661464        1.16623606983929        0.15869864564204
S            4.39655772033149        0.49888186922339        0.47932582161464
C            5.66709696600329        1.58282940681082        0.15842126329992
S            0.77468986637988        1.99716397790355        0.00043640901713
C            5.15872502721506        2.82449238837649        0.00759033755483
C            1.44635592111126       -0.25119391341295        0.00674106300434
H           -1.45238186663621        1.23275304480824       -0.00007270988335
H            5.63054097948520        3.76798113610899       -0.16357566024556
C            1.95358564720136        0.98509601728231        0.08533661680389
C            3.77858705470315        2.73773381516299        0.11859139532432
F            2.03482158510130       -1.42214447459111       -0.02295778531669
C            3.24524043945474        1.51418330570335        0.22033385758655
H           -0.37944011480772       -1.36213586731807       -0.01045377469079
16
 energy: -35.066819196953 gnorm: 0.139592141035 xtb: 6.5.0 (746241f)
C           -0.50874872441397        0.85596381587283        0.00263693892396
C            0.04472157022038       -0.38161245627843       -0.00480532472166
F            3.14719142680529        3.94037603671497       -0.00621078582557
H            6.68987481136751        1.18432626360459        0.16382609583138
S            4.46900867369971        0.43400200533737        0.45676511562047
C            5.70409295178138        1.57559061742101        0.17227573429756
S            0.69930850865501        2.05668545777199        0.02166904143275
C            5.18275928711942        2.81724658266226        0.01874034334369
C            1.42690564501281       -0.27417978786613        0.01105161710200
H           -1.50670515049629        1.21541882538797       -0.00547572744642
H            5.65450780102623        3.76090544011226       -0.16018866870559
C            1.93539382375953        1.00925672903909        0.09634828733708
C            3.79888055212897        2.75911967444175        0.10633872318621
F            2.10916560371053       -1.44415193679144       -0.01100749082375
C            3.26035461616165        1.48967547630966        0.21239677503383
H           -0.40281139653818       -1.35372274373974       -0.01406067458594
16
 energy: -35.083554075673 gnorm: 0.087952722747 xtb: 6.5.0 (746241f)
C           -0.53946590025416        0.86122969306811        0.00319132385322
C            0.02566432839929       -0.37303131764118       -0.00686735078086
F            3.09555773627328        3.93294664077829       -0.02850083178957
H            6.74917750882554        1.22699634756023        0.17705816156565
S            4.52237865399264        0.38620850910514        0.41925037572632
C            5.73752931736502        1.57481115188030        0.18270911570383
S            0.64531653715143        2.09703057431597        0.04881581784664
C            5.20193425981393        2.81220138307424        0.02849518889724
C            1.41763993434714       -0.28129346227104        0.02365790487481
H           -1.56126766132380        1.17837075293721       -0.01105653100445
H            5.69365336521224        3.74957652855664       -0.14222042624578
C            1.92134691963226        1.02440856296019        0.10984744596952
C            3.80728414282004        2.76223516954100        0.08519764259037
F            2.15723486667858       -1.43994061399686        0.00289152096575
C            3.27274148272011        1.47065671716971        0.19216833973912
H           -0.44282549165355       -1.33750663703795       -0.02433769791181
16
 energy: -35.089620540254 gnorm: 0.065785089485 xtb: 6.5.0 (746241f)
C           -0.55908244211096        0.86513912075084        0.01041649328300
C            0.01551169204849       -0.36479427622539       -0.00344345137092
F            3.06276090249072        3.90917571315102       -0.05434275479215
H            6.79147751282075        1.27483372225303        0.19904615104017
S            4.55782103380072        0.35315923032777        0.37445315964269
C            5.76008927928947        1.57570165234113        0.18824904681704
S            0.61161803409311        2.12183720502192        0.07221739123535
C            5.21126164619797        2.80761963067529        0.03565335990309
C            1.41539146540389       -0.27909205092474        0.03736894755963
H           -1.59720417015685        1.14033871869428       -0.01120917718096
H            5.72822473383079        3.73787194287954       -0.10879112000422
C            1.91373140309013        1.03159968058364        0.11840134041309
C            3.80758079278261        2.75413869736956        0.05806093644566
F            2.18412865979946       -1.42226869834560        0.01572022239343
C            3.28051774522264        1.45700089602778        0.16340923414174
H           -0.47992828860296       -1.31736118458008       -0.03490977952665
16
 energy: -35.092865658104 gnorm: 0.045742261309 xtb: 6.5.0 (746241f)
C           -0.56899474006724        0.86862411371728        0.01955257549613
C            0.01423159159011       -0.35742978598161        0.00224812246564
F            3.04202046546961        3.87744661053473       -0.07967369516860
H            6.81352121845709        1.31365244639399        0.22292266891853
S            4.58080065088893        0.33078672398968        0.33130603529019
C            5.77140187159367        1.57492987344911        0.19058482124393
S            0.59066548055900        2.13804676454220        0.08977990954008
C            5.21186748215802        2.80258124923033        0.04080886216870
C            1.41847872881939       -0.27092893258802        0.04841803420199
H           -1.61573760717796        1.10892874055506       -0.00736423903305
H            5.75121163071032        3.72664687678115       -0.07106747525298
C            1.91111746469734        1.03464409241824        0.12109413824887
C            3.80306718008317        2.74156886753703        0.03227497437458
F            2.20079554584794       -1.39562643490549        0.02630250125781
C            3.28408659480417        1.44928321605855        0.13525629184626
H           -0.50463355843356       -1.29825442173223       -0.04214352559811
16
 energy: -35.094814096117 gnorm: 0.021876671061 xtb: 6.5.0 (746241f)
C           -0.57015235978732        0.87186924347809        0.02683729570174
C            0.01990991025670       -0.35159433573195        0.00753071098470
F            3.03057867437139        3.84289800063151       -0.09996308788732
H            6.81675297809777        1.33706867253659        0.24220049026052
S            4.59393906784436        0.31739895568501        0.29709383411487
C            5.77218507672780        1.57206454564189        0.19101336313791
S            0.57984868186180        2.14833243961354        0.10068574500084
C            5.20554128265881        2.79750153891043        0.04458876824825
C            1.42517645933886       -0.25940732428728        0.05491512230649
H           -1.61912341828832        1.08902162234194       -0.00234837286398
H            5.75835481431220        3.71676745871009       -0.03989751282521
C            1.91258617473579        1.03498891120021        0.11839278814516
C            3.79628384418137        2.72826855693782        0.01452994672523
F            2.21119276084354       -1.36398599310335        0.03406618937725
C            3.28438573920263        1.44732300909779        0.11521711547624
H           -0.51355968635739       -1.28361530166235       -0.04456239590268
16
 energy: -35.095409127206 gnorm: 0.010453365484 xtb: 6.5.0 (746241f)
C           -0.56490345649075        0.87402345191064        0.02957613726169
C            0.02542865319409       -0.34979231895442        0.01083048881963
F            3.02818573377583        3.82349275884620       -0.10834933724586
H            6.80890135562328        1.33861233822023        0.25060540519607
S            4.59602127989503        0.31404981565675        0.28322413661548
C            5.76656368960038        1.57010863040880        0.19154155707235
S            0.58055363226059        2.15052792575419        0.09809537435077
C            5.19902014158986        2.79608688829527        0.04825270995838
C            1.42933264897742       -0.25331632191124        0.05242923174622
H           -1.61167824291399        1.09025791869489        0.00386958901819
H            5.75016809594347        3.71540084640445       -0.02588959880349
C            1.91585754904136        1.03284155728651        0.10901060955915
C            3.79251768744821        2.72146094951878        0.01073418218256
F            2.21295151577358       -1.34680354861987        0.03531783542238
C            3.28337309370725        1.44841483908592        0.10850615958619
H           -0.50839337742561       -1.28046573059711       -0.03745448073972
16
 energy: -35.095568513657 gnorm: 0.008548943753 xtb: 6.5.0 (746241f)
C           -0.56052033048623        0.87489050003504        0.03056813309734
C            0.02670836904049       -0.35045630298555        0.01312645965418
F            3.02780711275358        3.81769665576120       -0.11170430378976
H            6.80348424199202        1.33278337667385        0.25400980950197
S            4.59479200757510        0.31388224644379        0.27861790319929
C            5.76246059395774        1.57013045292456        0.19304794007525
S            0.58410642986769        2.14976650188765        0.08920191323093
C            5.19691652894807        2.79751212348041        0.05252202833920
C            1.42949189780623       -0.25298383545335        0.04649022821327
H           -1.60588046870102        1.09906382242153        0.01102579632062
H            5.74236167142607        3.71969980127840       -0.01888739961643
C            1.91783445368332        1.03057521775322        0.09780677567912
C            3.79227197566945        2.72022312501913        0.01159683345697
F            2.21180529078155       -1.34336536371401        0.03362884662817
C            3.28315807425375        1.44895406101294        0.10594195493128
H           -0.50289784856782       -1.28347238253882       -0.02669291892142
16
 energy: -35.095661044062 gnorm: 0.006732239469 xtb: 6.5.0 (746241f)
C           -0.55722502030962        0.87525696886782        0.03201221728430
C            0.02592526885959       -0.35182148661998        0.01580478596075
F            3.02598515236643        3.81431653368968       -0.11622314508064
H            6.79996306526666        1.32606540424219        0.25775839435009
S            4.59390747369288        0.31346347467264        0.27303667567243
C            5.75963173838412        1.57104578190681        0.19559830520867
S            0.58769761421140        2.14922836530200        0.07756863707627
C            5.19680897492044        2.79992809336912        0.05834432851677
C            1.42819931336971       -0.25435236360998        0.03973922670650
H           -1.60194642544441        1.10902572032749        0.02051185248713
H            5.73657885234830        3.72564514438163       -0.00996568239321
C            1.91923660499234        1.02838646762940        0.08408361976291
C            3.79319853684071        2.72052736729958        0.01225580877932
F            2.21151423598028       -1.34290117012959        0.03172102204425
C            3.28367537450675        1.44893799450410        0.10208314009152
H           -0.49925075998560       -1.28785229583292       -0.01402918646705
16
 energy: -35.095704976413 gnorm: 0.005451570537 xtb: 6.5.0 (746241f)
C           -0.55621653608812        0.87539037744405        0.03362381923396
C            0.02431006951475       -0.35263420741286        0.01810243086456
F            3.02268827539441        3.81191795819748       -0.12053175466694
H            6.79926629478578        1.32319690429665        0.26098804531505
S            4.59432333225997        0.31246710358419        0.26685321937359
C            5.75899887585792        1.57205114669583        0.19773005601318
S            0.58979904688665        2.14960833599738        0.06932817263242
C            5.19750517033757        2.80157941898898        0.06293969594069
C            1.42690326016096       -0.25579753088671        0.03623506816623
H           -1.60073260121884        1.11443646040072        0.02756450427526
H            5.73484331058646        3.72914715468574       -0.00151366400444
C            1.91991597453013        1.02709304169454        0.07403875628969
C            3.79402183359647        2.72105026793746        0.01170069942274
F            2.21295934260580       -1.34300684754257        0.03113549326713
C            3.28456328114161        1.44832084231944        0.09780598320264
H           -0.49924893035153       -1.28992042640034       -0.00570052532577
16
 energy: -35.095738232327 gnorm: 0.004592479734 xtb: 6.5.0 (746241f)
C           -0.55615028637218        0.87576297771418        0.03525955146320
C            0.02256117708901       -0.35285162061044        0.02073091838880
F            3.01801834783803        3.80898487828683       -0.12427155061381
H            6.79975831362979        1.32301582887577        0.26391342341760
S            4.59546483814710        0.31116982280409        0.25904447676673
C            5.75933683222857        1.57296489131851        0.19917383541495
S            0.59188774580625        2.15042754472055        0.06257861114303
C            5.19799591077439        2.80263368877044        0.06690460971517
C            1.42581528613644       -0.25718373977648        0.03510441701688
H           -1.60047538917410        1.11741570400923        0.03258328920334
H            5.73479125537602        3.73099916692739        0.00793809293636
C            1.92051528261590        1.02598124989101        0.06540047374073
C            3.79445814172712        2.72130745609529        0.01045744343516
F            2.21560760727175       -1.34285109980943        0.03171884933659
C            3.28570304827588        1.44717631778461        0.09277735034988
H           -0.50138811136999       -1.29005306700157        0.00098620828540
16
 energy: -35.095763657048 gnorm: 0.003892556367 xtb: 6.5.0 (746241f)
C           -0.55628270899756        0.87663320476905        0.03603707539219
C            0.02140608518716       -0.35240494913099        0.02337769767879
F            3.01324623165525        3.80591555122889       -0.12538234341359
H            6.80068102052058        1.32509992156025        0.26543723325014
S            4.59670493321087        0.31015206839363        0.25113957869080
C            5.76002749828920        1.57352548604590        0.19913490285274
S            0.59442949653080        2.15103674385152        0.05810208308797
C            5.19768333081951        2.80300722222255        0.06946006670699
C            1.42519011536442       -0.25834852665256        0.03643701475238
H           -1.60034319916974        1.11852194456397        0.03372766466491
H            5.73524673682131        3.73129573727774        0.01638616568156
C            1.92115210646487        1.02486921508786        0.05949351381998
C            3.79426546680346        2.72105726488408        0.00932556256389
F            2.21826322102722       -1.34264014580840        0.03348434260121
C            3.28681055313653        1.44564475381865        0.08820038924022
H           -0.50458088766389       -1.28846549211215        0.00593905242983
16
 energy: -35.095784615960 gnorm: 0.002989142480 xtb: 6.5.0 (746241f)
C           -0.55593918262601        0.87811392351314        0.03544712848171
C            0.02101666305950       -0.35147667725878        0.02597084131384
F            3.00885959700696        3.80292418220414       -0.12289083623338
H            6.80147573413772        1.32852352775895        0.26516301023705
S            4.59776254860111        0.30959081004363        0.24348454431706
C            5.76059362550245        1.57376508715467        0.19746763024020
S            0.59777216623915        2.15112167844643        0.05534284517179
C            5.19647820271128        2.80298501364983        0.07082402484588
C            1.42493411926341       -0.25944277970111        0.03966663986221
H           -1.59968598995753        1.11900664583987        0.03077857111759
H            5.73525567754214        3.73076575790562        0.02312983314159
C            1.92187827515067        1.02354020589635        0.05599716741130
C            3.79346627455921        2.72030120556843        0.00887047460679
F            2.22021718242830       -1.34271134231289        0.03650468193712
C            3.28781593138037        1.44371694743312        0.08442015610530
H           -0.50800082499874       -1.28582418614141        0.01012328744393
16
 energy: -35.095797306137 gnorm: 0.002261903302 xtb: 6.5.0 (746241f)
C           -0.55485834174664        0.87970046975177        0.03365195975955
C            0.02133227285705       -0.35060393111243        0.02775407303157
F            3.00620625864114        3.80092961903110       -0.11766961619065
H            6.80171424462164        1.33144745785858        0.26345989891073
S            4.59838674191536        0.30947916385677        0.23807207745505
C            5.76066592139670        1.57379504399104        0.19502088904355
S            0.60083697957715        2.15068861474276        0.05414106893642
C            5.19497875612092        2.80291379827493        0.07118770035318
C            1.42492664363969       -0.26031513970587        0.04298126851974
H           -1.59837131177577        1.11975409005497        0.02554494253306
H            5.73434988652937        3.73036999207632        0.02630802794032
C            1.92244543227519        1.02229939750722        0.05501039833413
C            3.79244269433134        2.71932938097574        0.00934759814772
F            2.22058048497045       -1.34323347323273        0.03991763282068
C            3.28844387823402        1.44191757525382        0.08232952278055
H           -0.51018054158761       -1.28357205932401        0.01324255762439
16
 energy: -35.095803965949 gnorm: 0.001949802509 xtb: 6.5.0 (746241f)
C           -0.55347309418933        0.88089197854724        0.03162620096414
C            0.02178144249986       -0.35013611348851        0.02867003485774
F            3.00501230292817        3.79994232976654       -0.11220680765607
H            6.80155967317730        1.33294633941880        0.26153089057360
S            4.59883741598823        0.30944967456410        0.23473240199409
C            5.76040977561159        1.57383731560593        0.19294148214433
S            0.60283515342371        2.15025367923324        0.05336378886432
C            5.19387392141143        2.80300930694682        0.07129214659432
C            1.42494468180120       -0.26095394373256        0.04515801496613
H           -1.59688427666813        1.12095000880212        0.02088902182265
H            5.73298306229356        3.73059095503038        0.02698041644622
C            1.92273071505487        1.02142393525706        0.05506736210152
C            3.79162532100210        2.71851478753123        0.01027856231817
F            2.21992183005073       -1.34395824318878        0.04310300283804
C            3.28875786932490        1.44054858496745        0.08143690531095
H           -0.51101579371020       -1.28241059526108        0.01543657585983
16
 energy: -35.095809496782 gnorm: 0.001958708214 xtb: 6.5.0 (746241f)
C           -0.55145237042683        0.88214695921971        0.02873346360676
C            0.02218400574751       -0.34987523227269        0.02941828214379
F            3.00389375858922        3.79911251106622       -0.10460961086633
H            6.80128689312487        1.33381777658545        0.25873617968338
S            4.59977989753727        0.30921711035261        0.23060774025902
C            5.75999923014753        1.57406255569752        0.19046793000727
S            0.60465091023958        2.15003416250447        0.05158885779575
C            5.19284058181537        2.80334042881616        0.07163171126916
C            1.42490411932942       -0.26176274070979        0.04732922123578
H           -1.59483578813558        1.12304819704872        0.01545180807969
H            5.73084847896979        3.73156644316863        0.02698652748238
C            1.92287175930121        1.02054701069469        0.05519408486447
C            3.79072645269171        2.71756033044244        0.01189227939577
F            2.21859046475786       -1.34509204576668        0.04821246365453
C            3.28909248875263        1.43884935112951        0.08064934094619
H           -0.51148088244157       -1.28167281797699        0.01800972044241
16
 energy: -35.095814434577 gnorm: 0.001765422258 xtb: 6.5.0 (746241f)
C           -0.55071642206871        0.88242422168959        0.02723325103832
C            0.02200887038754       -0.34995946638593        0.02961434162107
F            3.00324091396819        3.79884403789986       -0.10086426846871
H            6.80145463710755        1.33360851935826        0.25691502778876
S            4.60080707070121        0.30886764154757        0.22799296181708
C            5.76005620102001        1.57437841755736        0.18940225615397
S            0.60488562129816        2.15046343860593        0.04935125380253
C            5.19274756757232        2.80360053582892        0.07212770019864
C            1.42484874855924       -0.26213726240946        0.04816618395165
H           -1.59414433744695        1.12412001584028        0.01354405139945
H            5.72986239016735        3.73242052436275        0.02750780641573
C            1.92277358121297        1.02036536909428        0.05487032373251
C            3.79046892665957        2.71721962884053        0.01295290555198
F            2.21800544647754       -1.34568861471708        0.05215928372847
C            3.28929032733974        1.43807482966376        0.08028146959223
H           -0.51168954295573       -1.28170183677665        0.01904545167631
16
 energy: -35.095824229275 gnorm: 0.002081326043 xtb: 6.5.0 (746241f)
C           -0.54954404104769        0.88317864293755        0.02292297193430
C            0.02138491116123       -0.34984814640910        0.03071020488993
F            3.00103044925605        3.79775767838165       -0.09058252801086
H            6.80260372851886        1.33386881951784        0.25055663927614
S            4.60380842469090        0.30803283338535        0.21964318656965
C            5.76085134831830        1.57529474342310        0.18582435942680
S            0.60591051834142        2.15165902123926        0.04163709095147
C            5.19237739114174        2.80416762848067        0.07368748329138
C            1.42480916558426       -0.26315960798074        0.05132127303952
H           -1.59293217445548        1.12630091190081        0.00762384655176
H            5.72761021247894        3.73430364944868        0.03143684203534
C            1.92267076863177        1.01963783749141        0.05360042609134
C            3.78975858409813        2.71620505310696        0.01613011650668
F            2.21671320939626       -1.34734779680480        0.06423237867263
C            3.28988909010180        1.43596053790557        0.07909379794460
H           -0.51304158621649       -1.28111180602423        0.02246191082933
16
 energy: -35.095838572635 gnorm: 0.001038215318 xtb: 6.5.0 (746241f)
C           -0.55069593554869        0.88294627546828        0.02177041467955
C            0.02106265833318       -0.34965433993282        0.03163467456978
F            3.00162498038716        3.79803377908899       -0.08833490526320
H            6.80359390445737        1.33412837868081        0.24637367572956
S            4.60418378846798        0.30827371991947        0.21537682953630
C            5.76181057460645        1.57530221371579        0.18351778077172
S            0.60559577953429        2.15117924925707        0.03282070713452
C            5.19269003353417        2.80420548747002        0.07472158762242
C            1.42454694211533       -0.26297261822990        0.05319320861554
H           -1.59395266433482        1.12560691738027        0.00579899026035
H            5.72788005083914        3.73426907167822        0.03357662521787
C            1.92286463144223        1.01936105774932        0.05711244055762
C            3.79007305889610        2.71632319980106        0.01952197109320
F            2.21614144434832       -1.34757605313018        0.06622279053070
C            3.28968296708167        1.43651607338543        0.08311018468767
H           -0.51320221415990       -1.28104241230183        0.02388302425639
16
 energy: -35.095848092647 gnorm: 0.000592432150 xtb: 6.5.0 (746241f)
C           -0.55183606204844        0.88263248705363        0.01535524326117
C            0.02076861950616       -0.34948014109189        0.03321158791777
F            3.00224954422396        3.79918927884982       -0.07996344906489
H            6.80478510046415        1.33414707656560        0.23720225324496
S            4.60445762593045        0.30837306445664        0.20820075969840
C            5.76293326013495        1.57507800812119        0.17744898529051
S            0.60540330701324        2.15074825333683        0.02489453371093
C            5.19294949626096        2.80437291115916        0.07639619560299
C            1.42420979597118       -0.26290643252478        0.05717917375002
H           -1.59491293221298        1.12477378779390       -0.00225617815596
H            5.72814207785068        3.73451634688823        0.03945322964735