      -----------------------------------------------------------      
     |                   =====================                   |     
     |                           x T B                           |     
     |                   =====================                   |     
     |                         S. Grimme                         |     
     |          Mulliken Center for Theoretical Chemistry        |     
     |                    University of Bonn                     |     
      -----------------------------------------------------------      

   * xtb version 6.5.0 (746241f) compiled by 'ehlert@majestix' on 2022-05-15

   xtb is free software: you can redistribute it and/or modify it under
   the terms of the GNU Lesser General Public License as published by
   the Free Software Foundation, either version 3 of the License, or
   (at your option) any later version.
   
   xtb is distributed in the hope that it will be useful,
   but WITHOUT ANY WARRANTY; without even the implied warranty of
   MERCHANTABILITY or FITNESS FOR A PARTICULAR PURPOSE.  See the
   GNU Lesser General Public License for more details.
   
   Cite this work as:
   * C. Bannwarth, E. Caldeweyher, S. Ehlert, A. Hansen, P. Pracht,
     J. Seibert, S. Spicher, S. Grimme, WIREs Comput. Mol. Sci., 2020, 11,
     e01493. DOI: 10.1002/wcms.1493
   
   for GFN2-xTB:
   * C. Bannwarth, S. Ehlert and S. Grimme., J. Chem. Theory Comput., 2019,
     15, 1652-1671. DOI: 10.1021/acs.jctc.8b01176
   for GFN1-xTB:
   * S. Grimme, C. Bannwarth, P. Shushkov, J. Chem. Theory Comput., 2017,
     13, 1989-2009. DOI: 10.1021/acs.jctc.7b00118
   for GFN0-xTB:
   * P. Pracht, E. Caldeweyher, S. Ehlert, S. Grimme, ChemRxiv, 2019, preprint.
     DOI: 10.26434/chemrxiv.8326202.v1
   for GFN-FF:
   * S. Spicher and S. Grimme, Angew. Chem. Int. Ed., 2020, 59, 15665-15673.
     DOI: 10.1002/anie.202004239
   
   for ALPB and GBSA implicit solvation:
   * S. Ehlert, M. Stahn, S. Spicher, S. Grimme, J. Chem. Theory Comput.,
     2021, 17, 4250-4261. DOI: 10.1021/acs.jctc.1c00471
   
   for DFT-D4:
   * E. Caldeweyher, C. Bannwarth and S. Grimme, J. Chem. Phys., 2017,
     147, 034112. DOI: 10.1063/1.4993215
   * E. Caldeweyher, S. Ehlert, A. Hansen, H. Neugebauer, S. Spicher,
     C. Bannwarth and S. Grimme, J. Chem. Phys., 2019, 150, 154122.
     DOI: 10.1063/1.5090222
   * E. Caldeweyher, J.-M. Mewes, S. Ehlert and S. Grimme, Phys. Chem. Chem. Phys.
     2020, 22, 8499-8512. DOI: 10.1039/D0CP00502A
   
   for sTDA-xTB:
   * S. Grimme and C. Bannwarth, J. Chem. Phys., 2016, 145, 054103.
     DOI: 10.1063/1.4959605
   
   in the mass-spec context:
   * V. Asgeirsson, C. Bauer and S. Grimme, Chem. Sci., 2017, 8, 4879.
     DOI: 10.1039/c7sc00601b
   * J. Koopman and S. Grimme, ACS Omega 2019, 4, 12, 15120-15133.
     DOI: 10.1021/acsomega.9b02011
   
   for metadynamics refer to:
   * S. Grimme, J. Chem. Theory Comput., 2019, 155, 2847-2862
     DOI: 10.1021/acs.jctc.9b00143
   
   for SPH calculations refer to:
   * S. Spicher and S. Grimme, J. Chem. Theory Comput., 2021, 17, 1701-1714
     DOI: 10.1021/acs.jctc.0c01306
   
   with help from (in alphabetical order)
   P. Atkinson, C. Bannwarth, F. Bohle, G. Brandenburg, E. Caldeweyher
   M. Checinski, S. Dohm, S. Ehlert, S. Ehrlich, I. Gerasimov, C. Hölzer
   A. Katbashev, J. Koopman, C. Lavigne, S. Lehtola, F. März, M. Müller,
   F. Musil, H. Neugebauer, J. Pisarek, C. Plett, P. Pracht, F. Pultar,
   J. Seibert, P. Shushkov, S. Spicher, M. Stahn, M. Steiner, T. Strunk,
   J. Stückrath, T. Rose, and J. Unsleber
   
 * started run on 2022/07/14 at 15:23:24.025     

           -------------------------------------------------
          |                Calculation Setup                |
           -------------------------------------------------

          program call               : xtb -c 0 -u 0 e1.xyz --opt normal
          coordinate file            : e1.xyz
          omp threads                :                    16

   ID    Z sym.   atoms
    1    6 C      1, 2, 6, 8, 9, 12, 13, 15
    2    9 F      3, 14
    3    1 H      4, 10, 11, 16
    4   16 S      5, 7

           -------------------------------------------------
          |                 G F N 2 - x T B                 |
           -------------------------------------------------

        Reference                      10.1021/acs.jctc.8b01176
      * Hamiltonian:
        H0-scaling (s, p, d)           1.850000    2.230000    2.230000
        zeta-weighting                 0.500000
      * Dispersion:
        s8                             2.700000
        a1                             0.520000
        a2                             5.000000
        s9                             5.000000
      * Repulsion:
        kExp                           1.500000    1.000000
        rExp                           1.000000
      * Coulomb:
        alpha                          2.000000
        third order                    shell-resolved
        anisotropic                    true
        a3                             3.000000
        a5                             4.000000
        cn-shift                       1.200000
        cn-exp                         4.000000
        max-rad                        5.000000

q/qsh data taken from xtbrestart
CAMM data taken from xtbrestart

          ...................................................
          :                      SETUP                      :
          :.................................................:
          :  # basis functions                  64          :
          :  # atomic orbitals                  62          :
          :  # shells                           30          :
          :  # electrons                        62          :
          :  max. iterations                   250          :
          :  Hamiltonian                  GFN2-xTB          :
          :  restarted?                       true          :
          :  GBSA solvation                  false          :
          :  PC potential                    false          :
          :  electronic temp.          300.0000000     K    :
          :  accuracy                    1.0000000          :
          :  -> integral cutoff          0.2500000E+02      :
          :  -> integral neglect         0.1000000E-07      :
          :  -> SCF convergence          0.1000000E-05 Eh   :
          :  -> wf. convergence          0.1000000E-03 e    :
          :  Broyden damping             0.4000000          :
          ...................................................

 iter      E             dE          RMSdq      gap      omega  full diag
   1    -35.1847182 -0.351847E+02  0.538E+00    3.43       0.0  T
   2    -35.2102295 -0.255113E-01  0.425E+00    4.36       1.0  T
   3    -35.2294829 -0.192534E-01  0.195E+00    3.73       1.0  T
   4    -35.2516851 -0.222021E-01  0.266E-01    4.02       1.0  T
   5    -35.2517761 -0.910279E-04  0.148E-01    4.03       1.0  T
   6    -35.2519305 -0.154424E-03  0.454E-02    4.01       1.0  T
   7    -35.2519328 -0.232786E-05  0.181E-02    4.01       1.4  T
   8    -35.2519332 -0.384088E-06  0.532E-03    4.01       4.7  T
   9    -35.2519333 -0.586540E-07  0.158E-03    4.01      15.9  T
  10    -35.2519333 -0.339475E-08  0.308E-04    4.01      81.1  T
  11    -35.2519333 -0.749978E-10  0.978E-05    4.01     255.7  T

   *** convergence criteria satisfied after 11 iterations ***

         #    Occupation            Energy/Eh            Energy/eV
      -------------------------------------------------------------
         1        2.0000           -0.9023183             -24.5533
       ...           ...                  ...                  ...
        25        2.0000           -0.4394582             -11.9583
        26        2.0000           -0.4335378             -11.7972
        27        2.0000           -0.4299718             -11.7001
        28        2.0000           -0.4282648             -11.6537
        29        2.0000           -0.4160336             -11.3209
        30        2.0000           -0.3654344              -9.9440
        31        2.0000           -0.3647193              -9.9245 (HOMO)
        32                         -0.2171732              -5.9096 (LUMO)
        33                         -0.2165680              -5.8931
        34                         -0.2065716              -5.6211
        35                         -0.1779615              -4.8426
        36                         -0.1598570              -4.3499
       ...                                ...                  ...
        62                          6.7231816             182.9471
      -------------------------------------------------------------
                  HL-Gap            0.1475461 Eh            4.0149 eV
             Fermi-level           -0.2909463 Eh           -7.9171 eV

 SCC (total)                   0 d,  0 h,  0 min,  0.011 sec
 SCC setup                      ...        0 min,  0.000 sec (  1.075%)
 Dispersion                     ...        0 min,  0.000 sec (  1.552%)
 classical contributions        ...        0 min,  0.000 sec (  0.694%)
 integral evaluation            ...        0 min,  0.001 sec (  7.419%)
 iterations                     ...        0 min,  0.007 sec ( 63.101%)
 molecular gradient             ...        0 min,  0.003 sec ( 25.345%)
 printout                       ...        0 min,  0.000 sec (  0.674%)

         :::::::::::::::::::::::::::::::::::::::::::::::::::::
         ::                     SUMMARY                     ::
         :::::::::::::::::::::::::::::::::::::::::::::::::::::
         :: total energy             -33.314732158128 Eh    ::
         :: gradient norm              4.101725388165 Eh/a0 ::
         :: HOMO-LUMO gap              4.014932466085 eV    ::
         ::.................................................::
         :: SCC energy               -35.251933277647 Eh    ::
         :: -> isotropic ES            0.017311427333 Eh    ::
         :: -> anisotropic ES          0.009943673231 Eh    ::
         :: -> anisotropic XC         -0.020943575906 Eh    ::
         :: -> dispersion             -0.017461600115 Eh    ::
         :: repulsion energy           1.937233882809 Eh    ::
         :: add. restraining           0.000000000000 Eh    ::
         :: total charge              -0.000000000000 e     ::
         :::::::::::::::::::::::::::::::::::::::::::::::::::::

      ----------------------------------------------------------- 
     |                   =====================                   |
     |                        A N C O P T                        |
     |                   =====================                   |
     |               Approximate Normal Coordinate               |
     |                Rational Function Optimizer                |
      ----------------------------------------------------------- 

          ...................................................
          :                      SETUP                      :
          :.................................................:
          :   optimization level            normal          :
          :   max. optcycles                   200          :
          :   ANC micro-cycles                  20          :
          :   degrees of freedom                42          :
          :.................................................:
          :   RF solver                   davidson          :
          :   write xtbopt.log                true          :
          :   linear?                        false          :
          :   energy convergence         0.5000000E-05 Eh   :
          :   grad. convergence          0.1000000E-02 Eh/α :
          :   maximium RF displ.         1.0000000          :
          :   Hlow (freq-cutoff)         0.1000000E-01      :
          :   Hmax (freq-cutoff)         5.0000000          :
          :   S6 in model hess.         20.0000000          :
          ...................................................

generating ANC from model Hessian ...
Using Lindh-Hessian (1995)
 Shifting diagonal of input Hessian by   3.636299353860072E-004
 Lowest  eigenvalues of input Hessian
    0.000000    0.000000    0.000000    0.000000    0.000000    0.000000
    0.010000    0.015469    0.020068    0.037232    0.048571    0.063506
    0.068922    0.097162    0.102008    0.109909    0.124743    0.132557
 Highest eigenvalues
    3.634067    3.653675    4.906109    5.415483    6.738065    7.050161
 

........................................................................
.............................. CYCLE    1 ..............................
........................................................................
   1    -35.2519333 -0.352519E+02  0.313E-05    4.01       0.0  T
   2    -35.2519333 -0.476774E-11  0.173E-05    4.01    1446.2  T
   3    -35.2519333 -0.239453E-11  0.877E-06    4.01    2850.1  T
     SCC iter.                  ...        0 min,  0.003 sec
     gradient                   ...        0 min,  0.002 sec
 * total energy  :   -33.3147322 Eh     change       -0.3475265E-10 Eh
   gradient norm :     4.1017260 Eh/α   predicted     0.0000000E+00 (-100.00%)
   displ. norm   :     0.6319767 α      lambda       -0.2493354E+01
   maximum displ.:     0.5036948 α      in ANC's #40, #26, #31, ...

........................................................................
.............................. CYCLE    2 ..............................
........................................................................
   1    -35.4309777 -0.354310E+02  0.302E+00    4.24       0.0  T
   2    -35.4423424 -0.113647E-01  0.178E+00    3.92       1.0  T
   3    -35.4454551 -0.311276E-02  0.963E-01    4.12       1.0  T
   4    -35.4507003 -0.524515E-02  0.277E-01    3.99       1.0  T
   5    -35.4510065 -0.306222E-03  0.135E-01    4.01       1.0  T
   6    -35.4511099 -0.103393E-03  0.179E-02    4.02       1.4  T
   7    -35.4511112 -0.130587E-05  0.837E-03    4.02       3.0  T
   8    -35.4511112 -0.725701E-07  0.467E-03    4.02       5.3  T
   9    -35.4511113 -0.367993E-07  0.852E-04    4.02      29.3  T
  10    -35.4511113 -0.834085E-09  0.243E-04    4.02     103.0  T
     SCC iter.                  ...        0 min,  0.006 sec
     gradient                   ...        0 min,  0.002 sec
 * total energy  :   -34.6084575 Eh     change       -0.1293725E+01 Eh
   gradient norm :     0.9794286 Eh/α   predicted    -0.1744593E+01 (  34.85%)
   displ. norm   :     0.4651102 α      lambda       -0.3775813E+00
   maximum displ.:     0.2943534 α      in ANC's #26, #24, #28, ...

........................................................................
.............................. CYCLE    3 ..............................
........................................................................
   1    -35.5080112 -0.355080E+02  0.125E+00    3.64       0.0  T
   2    -35.5111611 -0.314993E-02  0.846E-01    3.50       1.0  T
   3    -35.5113894 -0.228297E-03  0.354E-01    3.55       1.0  T
   4    -35.5119777 -0.588274E-03  0.170E-01    3.51       1.0  T
   5    -35.5121380 -0.160357E-03  0.670E-02    3.51       1.0  T
   6    -35.5121619 -0.238463E-04  0.146E-02    3.52       1.7  T
   7    -35.5121621 -0.183587E-06  0.560E-03    3.52       4.5  T
   8    -35.5121621 -0.579006E-08  0.168E-03    3.52      14.9  T
   9    -35.5121621 -0.125334E-07  0.861E-04    3.52      29.0  T
  10    -35.5121621 -0.477107E-08  0.179E-04    3.52     139.8  T
     SCC iter.                  ...        0 min,  0.007 sec
     gradient                   ...        0 min,  0.001 sec
 * total energy  :   -34.8833853 Eh     change       -0.2749278E+00 Eh
   gradient norm :     0.5389876 Eh/α   predicted    -0.2296312E+00 ( -16.48%)
   displ. norm   :     0.4451820 α      lambda       -0.1856457E+00
   maximum displ.:     0.2670671 α      in ANC's #26, #24, #15, ...

........................................................................
.............................. CYCLE    4 ..............................
........................................................................
   1    -35.5275157 -0.355275E+02  0.107E+00    3.17       0.0  T
   2    -35.5287153 -0.119956E-02  0.752E-01    3.12       1.0  T
   3    -35.5279633  0.751927E-03  0.344E-01    3.13       1.0  T
   4    -35.5295341 -0.157076E-02  0.114E-01    3.12       1.0  T
   5    -35.5295964 -0.623246E-04  0.493E-02    3.11       1.0  T
   6    -35.5296079 -0.114784E-04  0.105E-02    3.12       2.4  T
   7    -35.5296079 -0.287534E-07  0.461E-03    3.12       5.4  T
   8    -35.5296079 -0.274539E-07  0.233E-03    3.12      10.7  T
   9    -35.5296080 -0.347669E-07  0.588E-04    3.12      42.5  T
  10    -35.5296080 -0.410878E-09  0.180E-04    3.12     139.0  T
     SCC iter.                  ...        0 min,  0.006 sec
     gradient                   ...        0 min,  0.001 sec
 * total energy  :   -35.0177127 Eh     change       -0.1343274E+00 Eh
   gradient norm :     0.2782476 Eh/α   predicted    -0.1112192E+00 ( -17.20%)
   displ. norm   :     0.3965408 α      lambda       -0.7614040E-01
   maximum displ.:     0.2018892 α      in ANC's #26, #15, #24, ...

........................................................................
.............................. CYCLE    5 ..............................
........................................................................
   1    -35.5082043 -0.355082E+02  0.795E-01    2.82       0.0  T
   2    -35.5085911 -0.386804E-03  0.538E-01    2.79       1.0  T
   3    -35.5077012  0.889888E-03  0.285E-01    2.80       1.0  T
   4    -35.5089808 -0.127957E-02  0.686E-02    2.79       1.0  T
   5    -35.5090046 -0.238358E-04  0.330E-02    2.79       1.0  T
   6    -35.5090105 -0.584678E-05  0.636E-03    2.79       3.9  T
   7    -35.5090106 -0.130365E-06  0.355E-03    2.79       7.0  T
   8    -35.5090106 -0.515548E-07  0.109E-03    2.79      22.9  T
   9    -35.5090106 -0.221066E-08  0.246E-04    2.79     101.7  T
  10    -35.5090106 -0.826290E-10  0.108E-04    2.79     232.0  T
     SCC iter.                  ...        0 min,  0.006 sec
     gradient                   ...        0 min,  0.001 sec
 * total energy  :   -35.0698596 Eh     change       -0.5214685E-01 Eh
   gradient norm :     0.1392462 Eh/α   predicted    -0.4405648E-01 ( -15.51%)
   displ. norm   :     0.3182916 α      lambda       -0.2270084E-01
   maximum displ.:     0.1637223 α      in ANC's #15, #6, #9, ...

........................................................................
.............................. CYCLE    6 ..............................
........................................................................
   1    -35.4860603 -0.354861E+02  0.485E-01    2.64       0.0  T
   2    -35.4861243 -0.640849E-04  0.320E-01    2.63       1.0  T
   3    -35.4856029  0.521472E-03  0.194E-01    2.64       1.0  T
   4    -35.4862389 -0.635999E-03  0.307E-02    2.63       1.0  T
   5    -35.4862430 -0.407534E-05  0.160E-02    2.63       1.6  T
   6    -35.4862442 -0.128678E-05  0.310E-03    2.63       8.1  T
   7    -35.4862443 -0.687889E-07  0.132E-03    2.63      18.9  T
   8    -35.4862443 -0.376654E-08  0.857E-04    2.63      29.2  T
   9    -35.4862443 -0.281103E-08  0.135E-04    2.63     184.9  T
     SCC iter.                  ...        0 min,  0.005 sec
     gradient                   ...        0 min,  0.001 sec
 * total energy  :   -35.0851675 Eh     change       -0.1530788E-01 Eh
   gradient norm :     0.0879894 Eh/α   predicted    -0.1250033E-01 ( -18.34%)
   displ. norm   :     0.2324068 α      lambda       -0.7292170E-02
   maximum displ.:     0.1123239 α      in ANC's #9, #15, #6, ...

........................................................................
.............................. CYCLE    7 ..............................
........................................................................
   1    -35.4754647 -0.354755E+02  0.291E-01    2.58       0.0  T
   2    -35.4754781 -0.133846E-04  0.185E-01    2.58       1.0  T
   3    -35.4753042  0.173938E-03  0.113E-01    2.59       1.0  T
   4    -35.4755094 -0.205274E-03  0.145E-02    2.58       1.7  T
   5    -35.4755101 -0.655208E-06  0.535E-03    2.58       4.7  T
   6    -35.4755101 -0.338554E-07  0.233E-03    2.58      10.7  T
   7    -35.4755102 -0.467779E-07  0.109E-03    2.58      22.9  T
   8    -35.4755102 -0.261021E-08  0.368E-04    2.58      67.9  T
   9    -35.4755102 -0.222961E-09  0.134E-04    2.58     187.2  T
     SCC iter.                  ...        0 min,  0.005 sec
     gradient                   ...        0 min,  0.001 sec
 * total energy  :   -35.0902657 Eh     change       -0.5098264E-02 Eh
   gradient norm :     0.0665034 Eh/α   predicted    -0.3843025E-02 ( -24.62%)
   displ. norm   :     0.1832497 α      lambda       -0.4033495E-02
   maximum displ.:     0.1017903 α      in ANC's #12, #9, #15, ...

........................................................................
.............................. CYCLE    8 ..............................
........................................................................
   1    -35.4742854 -0.354743E+02  0.206E-01    2.58       0.0  T
   2    -35.4743232 -0.378509E-04  0.129E-01    2.59       1.0  T
   3    -35.4743030  0.202672E-04  0.744E-02    2.59       1.0  T
   4    -35.4743462 -0.432453E-04  0.250E-02    2.59       1.0  T
   5    -35.4743520 -0.579896E-05  0.844E-03    2.59       3.0  T
   6    -35.4743528 -0.809210E-06  0.294E-03    2.59       8.5  T
   7    -35.4743529 -0.361364E-07  0.152E-03    2.59      16.4  T
   8    -35.4743529 -0.772916E-08  0.596E-04    2.59      42.0  T
   9    -35.4743529 -0.769994E-09  0.175E-04    2.59     142.7  T
     SCC iter.                  ...        0 min,  0.005 sec
     gradient                   ...        0 min,  0.001 sec
 * total energy  :   -35.0931821 Eh     change       -0.2916379E-02 Eh
   gradient norm :     0.0464799 Eh/α   predicted    -0.2084476E-02 ( -28.53%)
   displ. norm   :     0.1434621 α      lambda       -0.2839988E-02
   maximum displ.:     0.0810046 α      in ANC's #12, #9, #15, ...

........................................................................
.............................. CYCLE    9 ..............................
........................................................................
   1    -35.4809453 -0.354809E+02  0.160E-01    2.62       0.0  T
   2    -35.4810315 -0.862029E-04  0.103E-01    2.62       1.0  T
   3    -35.4810658 -0.342290E-04  0.558E-02    2.63       1.0  T
   4    -35.4810679 -0.219279E-05  0.277E-02    2.63       1.0  T
   5    -35.4810742 -0.623814E-05  0.103E-02    2.63       2.4  T
   6    -35.4810752 -0.100399E-05  0.363E-03    2.63       6.9  T
   7    -35.4810753 -0.102671E-06  0.156E-03    2.63      16.0  T
   8    -35.4810753 -0.599216E-08  0.525E-04    2.63      47.6  T
   9    -35.4810753 -0.491582E-09  0.161E-04    2.63     154.8  T
     SCC iter.                  ...        0 min,  0.005 sec
     gradient                   ...        0 min,  0.001 sec
 * total energy  :   -35.0950574 Eh     change       -0.1875275E-02 Eh
   gradient norm :     0.0217075 Eh/α   predicted    -0.1449222E-02 ( -22.72%)
   displ. norm   :     0.0643188 α      lambda       -0.8703290E-03
   maximum displ.:     0.0385130 α      in ANC's #6, #18, #26, ...

........................................................................
.............................. CYCLE   10 ..............................
........................................................................
   1    -35.4884365 -0.354884E+02  0.860E-02    2.65       0.0  T
   2    -35.4884715 -0.350807E-04  0.565E-02    2.66       1.0  T
   3    -35.4884854 -0.138180E-04  0.294E-02    2.66       1.0  T
   4    -35.4884849  0.426214E-06  0.141E-02    2.66       1.8  T
   5    -35.4884866 -0.169181E-05  0.637E-03    2.66       3.9  T
   6    -35.4884869 -0.291721E-06  0.216E-03    2.66      11.6  T
   7    -35.4884870 -0.466263E-07  0.693E-04    2.66      36.1  T
   8    -35.4884870 -0.171168E-08  0.188E-04    2.66     133.2  T
     SCC iter.                  ...        0 min,  0.005 sec
     gradient                   ...        0 min,  0.001 sec
 * total energy  :   -35.0955954 Eh     change       -0.5380095E-03 Eh
   gradient norm :     0.0100352 Eh/α   predicted    -0.4369655E-03 ( -18.78%)
   displ. norm   :     0.0408894 α      lambda       -0.1932757E-03
   maximum displ.:     0.0333214 α      in ANC's #6, #12, #26, ...

........................................................................
.............................. CYCLE   11 ..............................
........................................................................
   1    -35.4913401 -0.354913E+02  0.570E-02    2.66       0.0  T
   2    -35.4913426 -0.259438E-05  0.335E-02    2.66       1.0  T
   3    -35.4913416  0.109418E-05  0.163E-02    2.66       1.5  T
   4    -35.4913436 -0.205154E-05  0.455E-03    2.66       5.5  T
   5    -35.4913438 -0.149334E-06  0.231E-03    2.66      10.8  T
   6    -35.4913438 -0.453690E-07  0.733E-04    2.66      34.1  T
   7    -35.4913438 -0.495418E-08  0.325E-04    2.66      76.9  T
     SCC iter.                  ...        0 min,  0.004 sec
     gradient                   ...        0 min,  0.001 sec
 * total energy  :   -35.0957276 Eh     change       -0.1322347E-03 Eh
   gradient norm :     0.0078342 Eh/α   predicted    -0.9679760E-04 ( -26.80%)
   displ. norm   :     0.0341391 α      lambda       -0.9237043E-04
   maximum displ.:     0.0249506 α      in ANC's #6, #12, #9, ...

........................................................................
.............................. CYCLE   12 ..............................
........................................................................
   1    -35.4919399 -0.354919E+02  0.492E-02    2.66       0.0  T
   2    -35.4919401 -0.213968E-06  0.275E-02    2.66       1.0  T
   3    -35.4919399  0.239274E-06  0.595E-03    2.66       4.2  T
   4    -35.4919402 -0.281922E-06  0.305E-03    2.66       8.2  T
   5    -35.4919402 -0.469326E-07  0.113E-03    2.66      22.1  T
   6    -35.4919402 -0.109989E-07  0.504E-04    2.66      49.6  T
   7    -35.4919402 -0.482572E-09  0.258E-04    2.66      96.8  T
     SCC iter.                  ...        0 min,  0.004 sec
     gradient                   ...        0 min,  0.001 sec
 * total energy  :   -35.0957884 Eh     change       -0.6080094E-04 Eh
   gradient norm :     0.0058116 Eh/α   predicted    -0.4623721E-04 ( -23.95%)
   displ. norm   :     0.0171418 α      lambda       -0.3876974E-04
   maximum displ.:     0.0109193 α      in ANC's #6, #9, #15, ...

........................................................................
.............................. CYCLE   13 ..............................
........................................................................
   1    -35.4914187 -0.354914E+02  0.257E-02    2.66       0.0  T
   2    -35.4914189 -0.145565E-06  0.140E-02    2.66       1.8  T
   3    -35.4914188  0.664032E-07  0.423E-03    2.66       5.9  T
   4    -35.4914189 -0.109849E-06  0.168E-03    2.66      14.9  T
   5    -35.4914189  0.715254E-08  0.960E-04    2.66      26.0  T
   6    -35.4914189 -0.126615E-07  0.345E-04    2.66      72.4  T
     SCC iter.                  ...        0 min,  0.003 sec
     gradient                   ...        0 min,  0.001 sec
 * total energy  :   -35.0958168 Eh     change       -0.2839194E-04 Eh
   gradient norm :     0.0045705 Eh/α   predicted    -0.1939180E-04 ( -31.70%)
   displ. norm   :     0.0163289 α      lambda       -0.3595255E-04
   maximum displ.:     0.0111958 α      in ANC's #15, #6, #36, ...

........................................................................
.............................. CYCLE   14 ..............................
........................................................................
   1    -35.4905882 -0.354906E+02  0.186E-02    2.66       0.0  T
   2    -35.4905884 -0.184135E-06  0.104E-02    2.66       2.4  T
   3    -35.4905882  0.179325E-06  0.588E-03    2.66       4.3  T
   4    -35.4905885 -0.265633E-06  0.196E-03    2.66      12.7  T
   5    -35.4905885 -0.231767E-07  0.991E-04    2.66      25.2  T
   6    -35.4905885 -0.398341E-08  0.318E-04    2.66      78.6  T
     SCC iter.                  ...        0 min,  0.003 sec
     gradient                   ...        0 min,  0.001 sec
 * total energy  :   -35.0958419 Eh     change       -0.2510590E-04 Eh
   gradient norm :     0.0038831 Eh/α   predicted    -0.1798032E-04 ( -28.38%)
   displ. norm   :     0.0148064 α      lambda       -0.2393083E-04
   maximum displ.:     0.0097512 α      in ANC's #15, #12, #36, ...

........................................................................
.............................. CYCLE   15 ..............................
........................................................................
   1    -35.4901477 -0.354901E+02  0.111E-02    2.66       0.0  T
   2    -35.4901478 -0.486989E-07  0.731E-03    2.66       3.4  T
   3    -35.4901478 -0.618363E-08  0.474E-03    2.66       5.3  T
   4    -35.4901479 -0.167254E-06  0.105E-03    2.66      23.8  T
   5    -35.4901480 -0.618952E-08  0.557E-04    2.66      44.9  T
   6    -35.4901480 -0.980684E-09  0.200E-04    2.66     124.8  T
     SCC iter.                  ...        0 min,  0.003 sec
     gradient                   ...        0 min,  0.001 sec
 * total energy  :   -35.0958590 Eh     change       -0.1704691E-04 Eh
   gradient norm :     0.0033885 Eh/α   predicted    -0.1196734E-04 ( -29.80%)
   displ. norm   :     0.0137875 α      lambda       -0.1727018E-04
   maximum displ.:     0.0102999 α      in ANC's #12, #15, #36, ...

........................................................................
.............................. CYCLE   16 ..............................
........................................................................
   1    -35.4902339 -0.354902E+02  0.145E-02    2.66       0.0  T
   2    -35.4902340 -0.450917E-07  0.916E-03    2.66       2.7  T
   3    -35.4902338  0.177525E-06  0.612E-03    2.66       4.1  T
   4    -35.4902342 -0.431421E-06  0.991E-04    2.66      25.2  T
   5    -35.4902342 -0.117360E-08  0.338E-04    2.66      74.0  T
     SCC iter.                  ...        0 min,  0.003 sec
     gradient                   ...        0 min,  0.001 sec
 * total energy  :   -35.0958706 Eh     change       -0.1164530E-04 Eh
   gradient norm :     0.0024619 Eh/α   predicted    -0.8637829E-05 ( -25.83%)
   displ. norm   :     0.0075897 α      lambda       -0.7542450E-05
   maximum displ.:     0.0064955 α      in ANC's #12, #40, #9, ...

........................................................................
.............................. CYCLE   17 ..............................
........................................................................
   1    -35.4906467 -0.354906E+02  0.124E-02    2.66       0.0  T
   2    -35.4906468 -0.105655E-06  0.701E-03    2.66       3.6  T
   3    -35.4906467  0.152427E-06  0.448E-03    2.66       5.6  T
   4    -35.4906469 -0.250959E-06  0.128E-03    2.66      19.6  T
   5    -35.4906469 -0.867370E-08  0.358E-04    2.66      69.8  T
   6    -35.4906469 -0.336925E-09  0.113E-04    2.66     221.2  T
     SCC iter.                  ...        0 min,  0.004 sec
     gradient                   ...        0 min,  0.001 sec
 * total energy  :   -35.0958755 Eh     change       -0.4926694E-05 Eh
   gradient norm :     0.0015498 Eh/α   predicted    -0.3770376E-05 ( -23.47%)
   displ. norm   :     0.0048389 α      lambda       -0.2379504E-05
   maximum displ.:     0.0030856 α      in ANC's #12, #15, #6, ...

........................................................................
.............................. CYCLE   18 ..............................
........................................................................
   1    -35.4911033 -0.354911E+02  0.101E-02    2.66       0.0  T
   2    -35.4911034 -0.149232E-06  0.491E-03    2.66       5.1  T
   3    -35.4911034  0.166937E-07  0.247E-03    2.66      10.1  T
   4    -35.4911034 -0.244044E-07  0.131E-03    2.66      19.1  T
   5    -35.4911034 -0.180498E-07  0.352E-04    2.66      71.0  T
   6    -35.4911034 -0.512564E-09  0.125E-04    2.66     199.7  T
     SCC iter.                  ...        0 min,  0.003 sec
     gradient                   ...        0 min,  0.001 sec
 * total energy  :   -35.0958772 Eh     change       -0.1703355E-05 Eh
   gradient norm :     0.0009054 Eh/α   predicted    -0.1191330E-05 ( -30.06%)
   displ. norm   :     0.0016811 α      lambda       -0.5042724E-06
   maximum displ.:     0.0009552 α      in ANC's #12, #6, #26, ...

   *** GEOMETRY OPTIMIZATION CONVERGED AFTER 18 ITERATIONS ***

------------------------------------------------------------------------
 total energy gain   :        -1.7811451 Eh    -1117.6854 kcal/mol
 total RMSD          :         0.5519054 a0        0.2921 Å
 total power (kW/mol):      -259.7997662 (step)********** (real)
------------------------------------------------------------------------

 ANCopt (total)                0 d,  0 h,  0 min,  0.127 sec
 optimizer setup                ...        0 min,  0.000 sec (  0.043%)
 model hessian                  ...        0 min,  0.001 sec (  0.687%)
 ANC generation                 ...        0 min,  0.000 sec (  0.189%)
 coordinate transformation      ...        0 min,  0.000 sec (  0.059%)
 single point calculation       ...        0 min,  0.120 sec ( 94.992%)
 optimization log               ...        0 min,  0.001 sec (  0.956%)
 hessian update                 ...        0 min,  0.002 sec (  1.279%)
 rational function              ...        0 min,  0.002 sec (  1.389%)

================
 final structure:
================
16
 xtb: 6.5.0 (746241f)
C           -0.56876840691817        0.88941553243398       -0.00000018020707
C           -0.00065208234504       -0.34489785168848       -0.00000019335416
F            2.99166833401111        3.79861781544747        0.00000031179990
H            6.79286457269668        1.31138150666391       -0.00000036328193
S            4.58836660506458        0.29319100714079        0.00000042861496
C            5.75051878549359        1.55708383556434       -0.00000018194283
S            0.59346706570105        2.15324284689800        0.00000041660893
C            5.18231499821525        2.79135751687397       -0.00000020276100
C            1.40314209699744       -0.26371428268642        0.00000002760584
H           -1.61109979149541        1.13518425355452       -0.00000036875971
H            5.71998893676319        3.72090664261196       -0.00000043408239
C            1.90717900023323        1.01588315688819        0.00000042921930
C            3.77853077729462        2.71006181968117        0.00000001885641
F            2.18991456023362       -1.35233646908340        0.00000028986518
C            3.27456198189158        1.43042913578029        0.00000042925454
H           -0.53839743383733       -1.27440646608028       -0.00000042743596
 
 Bond Distances (Angstroems)
 ---------------------------
C1-C2=1.3588         C1-S7=1.7170         C1-H10=1.0709        C2-C1=1.3588         C2-C9=1.4061         C2-H16=1.0739        
F3-C13=1.3432        H4-C6=1.0709         S5-C6=1.7170         S5-C15=1.7376        C6-H4=1.0709         C6-S5=1.7170         
C6-C8=1.3588         S7-C1=1.7170         S7-C12=1.7376        C8-C6=1.3588         C8-H11=1.0739        C8-C13=1.4061        
C9-C2=1.4061         C9-C12=1.3753        C9-F14=1.3432        H10-C1=1.0709        H11-C8=1.0739        C12-S7=1.7376        
C12-C9=1.3753        C12-C15=1.4288       C13-F3=1.3432        C13-C8=1.4061        C13-C15=1.3753       F14-C9=1.3432        
C15-S5=1.7376        C15-C12=1.4288       C15-C13=1.3753       H16-C2=1.0739        
 C  H  Rav=1.0724 sigma=0.0015  Rmin=1.0709  Rmax=1.0739     4
 C  C  Rav=1.3870 sigma=0.0249  Rmin=1.3588  Rmax=1.4288     7
 F  C  Rav=1.3432 sigma=0.0000  Rmin=1.3432  Rmax=1.3432     2
 S  C  Rav=1.7273 sigma=0.0103  Rmin=1.7170  Rmax=1.7376     4
 
 selected bond angles (degree)
 --------------------
S7-C1-C2=112.68                H10-C1-C2=127.98               H10-C1-S7=119.33               C9-C2-C1=111.41                
H16-C2-C1=125.23               H16-C2-C9=123.36               C15-S5-C6= 91.72               S5-C6-H4=119.33                
C8-C6-H4=127.98                C8-C6-S5=112.68                C12-S7-C1= 91.72               H11-C8-C6=125.23               
C13-C8-C6=111.40               C13-C8-H11=123.36              C12-C9-C2=114.81               F14-C9-C2=122.55               
F14-C9-C12=122.64              
 
 selected dihedral angles (degree)
 ---------------------------------
C9-C2-C1-S7=  0.00            C9-C2-C1-H10=180.00           H16-C2-C1-S7=180.00           H16-C2-C1-H10=  0.00          
H4-C6-S5-C15=180.00           C8-C6-S5-C15=  0.00           C12-S7-C1-C2=  0.00           C12-S7-C1-H10=180.00          
H11-C8-C6-H4=  0.00           H11-C8-C6-S5=180.00           C13-C8-C6-H4=180.00           C13-C8-C6-S5=  0.00           
C12-C9-C2-C1=  0.00           C12-C9-C2-H16=180.00          F14-C9-C2-C1=180.00           F14-C9-C2-H16=  0.00          
           -------------------------------------------------
          |                Final Singlepoint                |
           -------------------------------------------------

          ...................................................
          :                      SETUP                      :
          :.................................................:
          :  # basis functions                  64          :
          :  # atomic orbitals                  62          :
          :  # shells                           30          :
          :  # electrons                        62          :
          :  max. iterations                   250          :
          :  Hamiltonian                  GFN2-xTB          :
          :  restarted?                      false          :
          :  GBSA solvation                  false          :
          :  PC potential                    false          :
          :  electronic temp.          300.0000000     K    :
          :  accuracy                    1.0000000          :
          :  -> integral cutoff          0.2500000E+02      :
          :  -> integral neglect         0.1000000E-07      :
          :  -> SCF convergence          0.1000000E-05 Eh   :
          :  -> wf. convergence          0.1000000E-03 e    :
          :  Broyden damping             0.4000000          :
          ...................................................

 iter      E             dE          RMSdq      gap      omega  full diag
   1    -35.4911034 -0.354911E+02  0.413E-05    2.66       0.0  T
   2    -35.4911034 -0.547118E-12  0.258E-05    2.66     967.5  T
   3    -35.4911034  0.188294E-11  0.181E-05    2.66    1382.1  T

   *** convergence criteria satisfied after 3 iterations ***

         #    Occupation            Energy/Eh            Energy/eV
      -------------------------------------------------------------
         1        2.0000           -0.8255715             -22.4649
       ...           ...                  ...                  ...
        25        2.0000           -0.4714354             -12.8284
        26        2.0000           -0.4696403             -12.7796
        27        2.0000           -0.4569761             -12.4350
        28        2.0000           -0.4431943             -12.0599
        29        2.0000           -0.4110317             -11.1847
        30        2.0000           -0.4098272             -11.1520
        31        2.0000           -0.3850014             -10.4764 (HOMO)
        32                         -0.2872455              -7.8163 (LUMO)
        33                         -0.2380618              -6.4780
        34                         -0.2246042              -6.1118
        35                         -0.2133243              -5.8048
        36                         -0.1938519              -5.2750
       ...                                ...                  ...
        62                          0.6817640              18.5517
      -------------------------------------------------------------
                  HL-Gap            0.0977559 Eh            2.6601 eV
             Fermi-level           -0.3361235 Eh           -9.1464 eV

 SCC (total)                   0 d,  0 h,  0 min,  0.004 sec
 SCC setup                      ...        0 min,  0.000 sec (  1.921%)
 Dispersion                     ...        0 min,  0.000 sec (  0.876%)
 classical contributions        ...        0 min,  0.000 sec (  0.151%)
 integral evaluation            ...        0 min,  0.001 sec ( 16.528%)
 iterations                     ...        0 min,  0.002 sec ( 47.809%)
 molecular gradient             ...        0 min,  0.001 sec ( 30.335%)
 printout                       ...        0 min,  0.000 sec (  2.066%)

         :::::::::::::::::::::::::::::::::::::::::::::::::::::
         ::                     SUMMARY                     ::
         :::::::::::::::::::::::::::::::::::::::::::::::::::::
         :: total energy             -35.095877247597 Eh    ::
         :: gradient norm              0.000906116853 Eh/a0 ::
         :: HOMO-LUMO gap              2.660074053144 eV    ::
         ::.................................................::
         :: SCC energy               -35.491103446959 Eh    ::
         :: -> isotropic ES            0.021641892896 Eh    ::
         :: -> anisotropic ES          0.000477440442 Eh    ::
         :: -> anisotropic XC          0.002295518060 Eh    ::
         :: -> dispersion             -0.018425972178 Eh    ::
         :: repulsion energy           0.395234817289 Eh    ::
         :: add. restraining           0.000000000000 Eh    ::
         :: total charge               0.000000000000 e     ::
         :::::::::::::::::::::::::::::::::::::::::::::::::::::

           -------------------------------------------------
          |                Property Printout                |
           -------------------------------------------------

    * Orbital Energies and Occupations

         #    Occupation            Energy/Eh            Energy/eV
      -------------------------------------------------------------
         1        2.0000           -0.8255715             -22.4649
       ...           ...                  ...                  ...
        19        2.0000           -0.5119977             -13.9322
        20        2.0000           -0.5072405             -13.8027
        21        2.0000           -0.4965465             -13.5117
        22        2.0000           -0.4836879             -13.1618
        23        2.0000           -0.4834959             -13.1566
        24        2.0000           -0.4800728             -13.0634
        25        2.0000           -0.4714354             -12.8284
        26        2.0000           -0.4696403             -12.7796
        27        2.0000           -0.4569761             -12.4350
        28        2.0000           -0.4431943             -12.0599
        29        2.0000           -0.4110317             -11.1847
        30        2.0000           -0.4098272             -11.1520
        31        2.0000           -0.3850014             -10.4764 (HOMO)
        32                         -0.2872455              -7.8163 (LUMO)
        33                         -0.2380618              -6.4780
        34                         -0.2246042              -6.1118
        35                         -0.2133243              -5.8048
        36                         -0.1938519              -5.2750
        37                         -0.1640683              -4.4645
        38                         -0.1491841              -4.0595
        39                         -0.1172296              -3.1900
        40                         -0.0255934              -0.6964
        41                         -0.0063081              -0.1717
        42                          0.0051977               0.1414
       ...                                ...                  ...
        62                          0.6817640              18.5517
      -------------------------------------------------------------
                  HL-Gap            0.0977559 Eh            2.6601 eV
             Fermi-level           -0.3361235 Eh           -9.1464 eV

     #   Z          covCN         q      C6AA      α(0)
     1   6 C        2.952    -0.029    28.733     8.792
     2   6 C        3.092    -0.062    29.433     8.892
     3   9 F        0.786    -0.213    11.367     3.983
     4   1 H        0.927     0.063     2.168     2.303
     5  16 S        2.343     0.032   139.735    19.895
     6   6 C        2.952    -0.029    28.733     8.792
     7  16 S        2.343     0.032   139.735    19.895
     8   6 C        3.092    -0.062    29.433     8.892
     9   6 C        3.005     0.148    24.776     8.165
    10   1 H        0.927     0.063     2.168     2.303
    11   1 H        0.926     0.064     2.152     2.294
    12   6 C        3.006    -0.003    28.077     8.692
    13   6 C        3.005     0.148    24.776     8.165
    14   9 F        0.786    -0.213    11.367     3.983
    15   6 C        3.006    -0.003    28.077     8.692
    16   1 H        0.926     0.064     2.152     2.294

 Mol. C6AA /au·bohr⁶  :       6095.966009
 Mol. C8AA /au·bohr⁸  :     192662.786484
 Mol. α(0) /au        :        126.031170


Wiberg/Mayer (AO) data.
largest (>0.10) Wiberg bond orders for each atom

 ---------------------------------------------------------------------------
     #   Z sym  total        # sym  WBO       # sym  WBO       # sym  WBO
 ---------------------------------------------------------------------------
     1   6 C    3.939 --     2 C    1.598     7 S    1.208    10 H    0.969
     2   6 C    3.984 --     1 C    1.598     9 C    1.270    16 H    0.962
     3   9 F    1.112 --    13 C    0.960
     4   1 H    0.996 --     6 C    0.969
     5  16 S    2.641 --     6 C    1.208    15 C    1.140
     6   6 C    3.939 --     8 C    1.598     5 S    1.208     4 H    0.969
     7  16 S    2.641 --     1 C    1.208    12 C    1.140
     8   6 C    3.984 --     6 C    1.598    13 C    1.270    11 H    0.962
     9   6 C    3.877 --    12 C    1.449     2 C    1.270    14 F    0.960
    10   1 H    0.996 --     1 C    0.969
    11   1 H    0.996 --     8 C    0.962
    12   6 C    3.953 --     9 C    1.449    15 C    1.157     7 S    1.140
    13   6 C    3.877 --    15 C    1.449     8 C    1.270     3 F    0.960
    14   9 F    1.112 --     9 C    0.960
    15   6 C    3.953 --    13 C    1.449    12 C    1.157     5 S    1.140
    16   1 H    0.996 --     2 C    0.962
 ---------------------------------------------------------------------------

Topologies differ in total number of bonds
Writing topology from bond orders to xtbtopo.mol

molecular dipole:
                 x           y           z       tot (Debye)
 q only:        0.000       0.000      -0.000
   full:        0.000       0.000      -0.000       0.000
molecular quadrupole (traceless):
                xx          xy          yy          xz          yz          zz
 q only:       12.360       2.362     -10.530      -0.000      -0.000      -1.830
  q+dip:       14.958       7.502     -12.294      -0.000      -0.000      -2.663
   full:       14.489       6.817     -13.232      -0.000      -0.000      -1.257

           -------------------------------------------------
          |                Geometry Summary                 |
           -------------------------------------------------

      molecular mass/u    :      202.2440313
   center of mass at/Å    :        2.5908618       1.2231968       0.0000002
  moments of inertia/u·Å² :        0.4050098E+03   0.7945275E+03   0.1199537E+04
rotational constants/cm⁻¹ :        0.4162278E-01   0.2121718E-01   0.1405345E-01

 * 17 selected distances

     #   Z          #   Z                                           value/Å
     1   6 C        2   6 C                                       1.3587811
     4   1 H        6   6 C                                       1.0709130 (min)
     5  16 S        6   6 C                                       1.7169809
     1   6 C        7  16 S                                       1.7169890
     6   6 C        8   6 C                                       1.3587816
     2   6 C        9   6 C                                       1.4061398
     1   6 C       10   1 H                                       1.0709142
     8   6 C       11   1 H                                       1.0738506
     7  16 S       12   6 C                                       1.7376498 (max)
     9   6 C       12   6 C                                       1.3752902
     3   9 F       13   6 C                                       1.3431705
     8   6 C       13   6 C                                       1.4061364
     9   6 C       14   9 F                                       1.3431714
     5  16 S       15   6 C                                       1.7376403
    12   6 C       15   6 C                                       1.4288404
    13   6 C       15   6 C                                       1.3752980
     2   6 C       16   1 H                                       1.0738513

 * 4 distinct bonds (by element types)

   Z      Z             #   av. dist./Å        max./Å        min./Å
   1 H    6 C           4     1.0723822     1.0738513     1.0709130
   6 C    6 C           7     1.3870382     1.4288404     1.3587811
   6 C    9 F           2     1.3431710     1.3431714     1.3431705
   6 C   16 S           4     1.7273150     1.7376498     1.7169809


optimized geometry written to: xtbopt.xyz


           -------------------------------------------------
          | TOTAL ENERGY              -35.095877247597 Eh   |
          | GRADIENT NORM               0.000906116853 Eh/α |
          | HOMO-LUMO GAP               2.660074053144 eV   |
           -------------------------------------------------
########################################################################
[WARNING] Runtime exception occurred
-1- restart_readRestart: Number of electron missmatch in restart file.
########################################################################

------------------------------------------------------------------------
 * finished run on 2022/07/14 at 15:23:24.179     
------------------------------------------------------------------------
 total:
 * wall-time:     0 d,  0 h,  0 min,  0.154 sec
 *  cpu-time:     0 d,  0 h,  0 min,  2.392 sec
 * ratio c/w:    15.504 speedup
 SCF:
 * wall-time:     0 d,  0 h,  0 min,  0.011 sec
 *  cpu-time:     0 d,  0 h,  0 min,  0.166 sec
 * ratio c/w:    15.416 speedup
 ANC optimizer:
 * wall-time:     0 d,  0 h,  0 min,  0.131 sec
 *  cpu-time:     0 d,  0 h,  0 min,  2.073 sec
 * ratio c/w:    15.775 speedup

