16
 energy: -33.314732158163 gnorm: 4.101725954721 xtb: 6.5.0 (746241f)
C           -0.42980000000000        0.82810000000000        0.00000000000000
C            0.09290000000000       -0.40810000000000        0.00000000000000
F            3.37070000000000        3.64360000000000        0.00000000000000
H            6.60210000000000        1.18040000000000        0.00000000000000
S            4.15150000000000        0.71890000000000        0.00000000000000
C            5.61180000000000        1.61890000000000        0.00000000000000
S            1.03100000000000        1.72720000000000        0.00000000000000
C            5.08850000000000        2.85480000000000        0.00000000000000
C            1.50310000000000       -0.13500000000000        0.00000000000000
H           -1.41970000000000        1.26730000000000        0.00000000000000
H            5.61110000000000        3.80980000000000        0.00000000000000
C            1.86290000000000        0.95040000000000        0.00000000000000
C            3.67850000000000        2.58070000000000        0.00000000000000
F            1.81050000000000       -1.19800000000000        0.00000000000000
C            3.31900000000000        1.49510000000000        0.00000000000000
H           -0.43050000000000       -1.36270000000000        0.00000000000000
16
 energy: -34.608457545096 gnorm: 0.979434757574 xtb: 6.5.0 (746241f)
C           -0.44164152513169        0.83819698130343       -0.00000000000000
C            0.08552463484946       -0.39919036685514        0.00000000000000
F            3.33441991978126        3.72022021846835       -0.00000000000000
H            6.60338022199722        1.18124786777963       -0.00000000000000
S            4.28015427902993        0.58121813029618       -0.00000000000000
C            5.62366081041775        1.60880162299934       -0.00000000000000
S            0.90241632455798        1.86498826788992       -0.00000000000000
C            5.09587993186848        2.84588044609157        0.00000000000000
C            1.48815409551211       -0.16456213666348        0.00000000000000
H           -1.42098886444915        1.26644988537309       -0.00000000000000
H            5.60921589801129        3.80721320694861        0.00000000000000
C            1.96142594916165        0.90535653815582        0.00000000000000
C            3.69342323367583        2.61025003926963        0.00000000000000
F            1.84672659389695       -1.27463970916472       -0.00000000000000
C            3.22045900159382        1.54008536175182        0.00000000000000
H           -0.42861050477290       -1.36011635364404        0.00000000000000
16
 energy: -34.883385305102 gnorm: 0.538988553122 xtb: 6.5.0 (746241f)
C           -0.46208728167188        0.84867777378175        0.00000000000112
C            0.05356696033931       -0.39383620211153        0.00000000000137
F            3.28460077822032        3.83543730513017       -0.00000000000009
H            6.61731859654037        1.18184495414176       -0.00000000000019
S            4.33080582485316        0.52133257885546        0.00000000000455
C            5.64414601136749        1.59830632125151       -0.00000000000065
S            0.85183397540645        1.92490968029265       -0.00000000000799
C            5.12782836805300        2.84052158689158       -0.00000000000096
C            1.44621025367918       -0.22591120241245       -0.00000000000823
H           -1.43494352527693        1.26583669651068        0.00000000000028
H            5.61254933357223        3.80137038225328        0.00000000000001
C            1.96055097253857        0.93766121185969        0.00000000001742
C            3.73532130569885        2.67160593695019        0.00000000000621
F            1.89643544485535       -1.38989169215277        0.00000000000015
C            3.22139302902982        1.50782495852615       -0.00000000001297
H           -0.43193004720529       -1.35429028976813       -0.00000000000002
16
 energy: -35.017712736700 gnorm: 0.278247719187 xtb: 6.5.0 (746241f)
C           -0.49773328928442        0.86023979742515       -0.00000000000475
C            0.02656487323566       -0.38338311430813       -0.00000000000585
F            3.21274413343797        3.89519153142746        0.00000000000521
H            6.65370653978591        1.18625591164636       -0.00000000000398
S            4.41512991907092        0.45609087655961        0.00000000002382
C            5.67981023225031        1.58673295623216       -0.00000000000305
S            0.76755538714944        1.99017656660355        0.00000000001897
C            5.15482208289256        2.83006140693716       -0.00000000000035
C            1.40939613186755       -0.26450383063960        0.00000000002886
H           -1.47135796562362        1.26140255094150        0.00000000000303
H            5.61610539732989        3.79505795168250        0.00000000000158
C            1.93882068907615        0.96404822280641       -0.00000000003938
C            3.77210532764137        2.71024376733305       -0.00000000001110
F            1.96821979215313       -1.44965967641042       -0.00000000000637
C            3.24317548629786        1.48145564537679       -0.00000000000465
H           -0.43546473728069       -1.34801056361354       -0.00000000000200
16
 energy: -35.069859583484 gnorm: 0.139247100638 xtb: 6.5.0 (746241f)
C           -0.53047593517193        0.87138073081522        0.00000000000402
C            0.00596904978009       -0.37327784925969       -0.00000000000022
F            3.13771633276954        3.92011976738451       -0.00000000000748
H            6.70601352657657        1.20245407437000       -0.00000000000323
S            4.48686679624148        0.39563806521871        0.00000000000657
C            5.71255529149052        1.57557625243145        0.00000000000182
S            0.69583131329141        2.05066244975985        0.00000000002438
C            5.17541982370249        2.81994061472213       -0.00000000000180
C            1.39139660129601       -0.28790757890308       -0.00000000002133
H           -1.52369751772604        1.24515669281252        0.00000000000122
H            5.63757060469773        3.78559560871214       -0.00000000000189
C            1.92334505255484        0.98819323466480       -0.00000000003859
C            3.79007732713074        2.73370068795600       -0.00000000001064
F            2.04320512615163       -1.47459040566113        0.00000000001024
C            3.25868732475418        1.45734988623413        0.00000000003937
H           -0.45688071753926       -1.33859223125754       -0.00000000000244
16
 energy: -35.085167464000 gnorm: 0.087994074285 xtb: 6.5.0 (746241f)
C           -0.55749233562070        0.87708063327927        0.00000000016157
C           -0.00899747922215       -0.36453464713687        0.00000000015348
F            3.08472559842539        3.91639799495854       -0.00000000001922
H            6.75763046294696        1.23919608950086        0.00000000001833
S            4.53651362805751        0.35379225068343       -0.00000000033263
C            5.73954844193395        1.56983967658138        0.00000000004153
S            0.64614329610898        2.09254853306638       -0.00000000103165
C            5.19041004684326        2.81117199797451        0.00000000000891
C            1.38523248058105       -0.29433136710801       -0.00000000083237
H           -1.57539533029678        1.20831494594784        0.00000000001758
H            5.67381170759690        3.76871998620304       -0.00000000000262
C            1.91248026986158        1.00454451901462        0.00000000179720
C            3.79623367924309        2.74019243701042        0.00000000003166
F            2.09621327031605       -1.47083207315349        0.00000000000941
C            3.26955296175469        1.44107118461407       -0.00000000000924
H           -0.49301069852980       -1.32177216143597       -0.00000000001192
16
 energy: -35.090265728049 gnorm: 0.066512282037 xtb: 6.5.0 (746241f)
C           -0.57354907102065        0.88051639660146       -0.00000000024461
C           -0.01475858966420       -0.35672122457547        0.00000000012748
F            3.05101081713816        3.89719491527903        0.00000000029872
H            6.79046959896519        1.27776611188179       -0.00000000043268
S            4.56657366649438        0.32736979820109       -0.00000000000882
C            5.75556503673329        1.56635308382311       -0.00000000006825
S            0.61599892656175        2.11901125166945       -0.00000000222411
C            5.19620410351486        2.80332988172979       -0.00000000006094
C            1.38657920109384       -0.29053528183261       -0.00000000015009
H           -1.60833037481270        1.16961039730982       -0.00000000004529
H            5.70546383795740        3.74912719857277       -0.00000000036964
C            1.90714415766181        1.01386014667191        0.00000000326517
C            3.79489779761432        2.73647278074797        0.00000000039043
F            2.12999026715059       -1.45156103873740       -0.00000000068185
C            3.27486189253698        1.43184975625161        0.00000000021192
H           -0.52452126792504       -1.30224417359434       -0.00000000000742
16
 energy: -35.093182107069 gnorm: 0.046489639281 xtb: 6.5.0 (746241f)
C           -0.58185934806041        0.88360531262366       -0.00000000110710
C           -0.01378890709186       -0.34968943257300        0.00000000032547
F            3.02707010310584        3.86802095007996        0.00000000139869
H            6.80798717523201        1.31078474481314       -0.00000000092311
S            4.58663133052525        0.30886003277274       -0.00000000118051
C            5.76383220723170        1.56321452988565       -0.00000000053209
S            0.59584035205163        2.13754915196933       -0.00000000414393
C            5.19526322323311        2.79627427633545        0.00000000075435
C            1.39205426875697       -0.28133584221206       -0.00000000052239
H           -1.62592570716546        1.13646010927963        0.00000000040807
H            5.72785353376636        3.73023501685718        0.00000000168872
C            1.90500291830244        1.01858032771767        0.00000000134056
C            3.78944495370912        2.72734473435875        0.00000000037992
F            2.15400619051526       -1.42231198627769        0.00000000077091
C            3.27696718111945        1.42722380585672       -0.00000000096789
H           -0.54677947523140       -1.28341573148713        0.00000000231034
16
 energy: -35.095057382301 gnorm: 0.021711849385 xtb: 6.5.0 (746241f)
C           -0.58314063955173        0.88661603357718        0.00000000051886
C           -0.00788650881472       -0.34406629905777       -0.00000000381333
F            3.01135348164051        3.83261735317361       -0.00000000341067
H            6.81191501507241        1.33268995115855       -0.00000000071862
S            4.59874563650147        0.29655180867478        0.00000000640779
C            5.76507059391765        1.56015662429584        0.00000000122294
S            0.58361525005443        2.14987183595024        0.00000000488523
C            5.18938829173754        2.79063498293080       -0.00000000331699
C            1.39956048514307       -0.26923278252219        0.00000000421940
H           -1.62991481417271        1.11442690977464        0.00000000018142
H            5.73721546473959        3.71561331288370       -0.00000001168553
C            1.90513431262936        1.01934045186849        0.00000000836475
C            3.78197087986526        2.71530713304409        0.00000000454959
F            2.16980440411224       -1.38682771697099       -0.00000000401668
C            3.27679647762090        1.42655492381192        0.00000000751413
H           -0.55602833049528       -1.26885452259288       -0.00000001090230
16
 energy: -35.095595391823 gnorm: 0.010035207566 xtb: 6.5.0 (746241f)
C           -0.57864718650002        0.88809025741283       -0.00000000585643
C           -0.00268271506214       -0.34270412014150        0.00000002327260
F            3.00825445654849        3.81357678793802        0.00000002250109
H            6.80541459034348        1.33216791533964        0.00000000543909
S            4.59946000055425        0.29383556498183       -0.00000004320328
C            5.76055001561872        1.55864954242214       -0.00000000801269
S            0.58282480064698        2.15259179672622       -0.00000004656304
C            5.18420710764772        2.78926605966278        0.00000002089879
C            1.40335025792784       -0.26282022501117       -0.00000002153331
H           -1.62345036883254        1.11486105845574        0.00000000520284
H            5.73084849346285        3.71382586728850        0.00000007434847
C            1.90649964119746        1.01761965906718       -0.00000004563848
C            3.77820631151539        2.70893493018479       -0.00000002614357
F            2.17296143787929       -1.36772585664343        0.00000002107387
C            3.27540306135355        1.42833385945965       -0.00000004651567
H           -0.54959990430134       -1.26710309714319        0.00000007072972
16
 energy: -35.095727626498 gnorm: 0.007834806275 xtb: 6.5.0 (746241f)
C           -0.57449103352478        0.88832675223525       -0.00000001912069
C           -0.00086323580205       -0.34352518803294       -0.00000002617402
F            3.00875136873708        3.80903391230580       -0.00000003846460
H            6.79973590655158        1.32377237801018       -0.00000005686676
S            4.59675495962896        0.29441887346629        0.00000006835376
C            5.75637784832860        1.55838937281263       -0.00000001042872
S            0.58548230817287        2.15200958730342        0.00000008742116
C            5.18240416890355        2.79008095479403       -0.00000001881819
C            1.40370242317921       -0.26183091517596        0.00000003062657
H           -1.61779210057411        1.12320290320902       -0.00000005455399
H            5.72295849328055        3.71779842708845       -0.00000006792307
C            1.90742120320738        1.01634385427419        0.00000008563098
C            3.77786916507947        2.70796940197283        0.00000003476005
F            2.17250249267239       -1.36314022472769       -0.00000002489137
C            3.27446301715553        1.42964507113237        0.00000007987729
H           -0.54167698499621       -1.27109516066789       -0.00000006942840
16
 energy: -35.095788427437 gnorm: 0.005812135193 xtb: 6.5.0 (746241f)
C           -0.57145083910155        0.88811046379332       -0.00000008731486
C           -0.00067163269340       -0.34477809644642       -0.00000009232171
F            3.00792628630168        3.80759779610484        0.00000001654915
H            6.79585662116123        1.31516900844347       -0.00000021628363
S            4.59431696843924        0.29480590133299        0.00000022751268
C            5.75331975041369        1.55857637297545       -0.00000008214968
S            0.58786566473310        2.15162394198176        0.00000024494035
C            5.18223082954860        2.79132256243146       -0.00000008858480
C            1.40312535926660       -0.26237739134794        0.00000012668825
H           -1.61393504974410        1.13175001611420       -0.00000021544190
H            5.71723118365026        3.72230262553938       -0.00000025267185
C            1.90787156029283        1.01554805313145        0.00000026704641
C            3.77846193823313        2.70854280981794        0.00000012320237
F            2.17337195570198       -1.36165423069920        0.00000002872292
C            3.27399177762930        1.43048227813735        0.00000026050219
H           -0.53591237383259       -1.27562211131005       -0.00000026039588
16
 energy: -35.095816819374 gnorm: 0.004570630123 xtb: 6.5.0 (746241f)
C           -0.57032682308417        0.88784138254861       -0.00000013548715
C           -0.00126913438383       -0.34554580119826       -0.00000016688469
F            3.00530004894537        3.80644138472462        0.00000004108024
H            6.79446093132428        1.31078165178136       -0.00000030450082
S            4.59325802427123        0.29439703511387        0.00000037092315
C            5.75217784213833        1.55881531523401       -0.00000013304601
S            0.58886921193796        2.15203439519761        0.00000039389883
C            5.18284552520737        2.79207643014213       -0.00000016382976
C            1.40261970615029       -0.26306474597246        0.00000016934479
H           -1.61256219064665        1.13608430409023       -0.00000030697355
H            5.71559480127900        3.72445697600982       -0.00000040936442
C            1.90786293793151        1.01529810272322        0.00000041843479
C            3.77898257179621        2.70925764631724        0.00000017108375
F            2.17604322336447       -1.36044757256504        0.00000005617394
C            3.27398004330840        1.43077529557986        0.00000041582970
H           -0.53423671953978       -1.27780179972683       -0.00000041668277
16
 energy: -35.095841925279 gnorm: 0.003883243957 xtb: 6.5.0 (746241f)
C           -0.56988663916058        0.88767794758867        0.00000017859785
C           -0.00207442837765       -0.34601406200699       -0.00000050573651
F            3.00064861278357        3.80428194810240       -0.00000022788515
H            6.79389322527688        1.30824036579186        0.00000009320217
S            4.59236097011457        0.29350009987952        0.00000078465062
C            5.75171169254947        1.55893519272622        0.00000016342722
S            0.58968588665701        2.15293330905766        0.00000077814101
C            5.18367491258064        2.79252402920190       -0.00000052458681
C            1.40227408728562       -0.26371039753124        0.00000021851508
H           -1.61202836825732        1.13854993306461        0.00000006898034
H            5.71593839912690        3.72523358563411       -0.00000121595229
C            1.90766417588526        1.01523130625706        0.00000074817436
C            3.77934917263311        2.70994346981608        0.00000018039678
F            2.18075962350255       -1.35821459411698       -0.00000026885540
C            3.27414996199579        1.43090548668368        0.00000074355527
H           -0.53452128459583       -1.27861762014856       -0.00000121462453
16
 energy: -35.095858972188 gnorm: 0.003389031707 xtb: 6.5.0 (746241f)
C           -0.56989801176336        0.88785900043457       -0.00000005783337
C           -0.00238515899344       -0.34594689467419       -0.00000042431496
F            2.99618799251739        3.80192364420316        0.00000021224883
H            6.79387743574343        1.30824040766933       -0.00000029410347
S            4.59139490538281        0.29282102697791        0.00000067460354
C            5.75169749804857        1.55871222853682       -0.00000006401803
S            0.59057395448755        2.15361355570742        0.00000065837417
C            5.18400863313861        2.79243726976469       -0.00000043487976
C            1.40229654140995       -0.26398817292076        0.00000007924568
H           -1.61204654848172        1.13847519793793       -0.00000030476830
H            5.71754867396511        3.72439379156417       -0.00000079344218
C            1.90745163968923        1.01529455068576        0.00000064047855
C            3.77934630608470        2.71026072543952        0.00000006179054
F            2.18528292811259       -1.35578302957125        0.00000017684850
C            3.27433505495299        1.43090456099152        0.00000064999993
H           -0.53607184429443       -1.27781786274660       -0.00000078022967
16
 energy: -35.095870617488 gnorm: 0.002462821617 xtb: 6.5.0 (746241f)
C           -0.56982870106091        0.88838169096462       -0.00000008358036
C           -0.00205608743943       -0.34552852372781       -0.00000030159212
F            2.99274761998276        3.79982409419801        0.00000014132607
H            6.79382006795269        1.30959380591817       -0.00000036113181
S            4.59009718797350        0.29262762881811        0.00000063121474
C            5.75160414248862        1.55815184190599       -0.00000008279199
S            0.59180091233404        2.15380720276513        0.00000061755751
C            5.18370030208331        2.79200200792951       -0.00000030014942
C            1.40258050585446       -0.26398913364434        0.00000003823970
H           -1.61202147578992        1.13705033122554       -0.00000035715514
H            5.71932477722028        3.72272784845107       -0.00000066182323
C            1.90729788434126        1.01542745849184        0.00000059284001
C            3.77907926030412        2.71029853848559        0.00000004079887
F            2.18878026430719       -1.35361405471696        0.00000012964045
C            3.27446439124468        1.43082920222443        0.00000060697112
H           -0.53779105179666       -1.27618993928888       -0.00000065036440
16
 energy: -35.095875544182 gnorm: 0.001550577926 xtb: 6.5.0 (746241f)
C           -0.56945912166767        0.88892617972396       -0.00000004615757
C           -0.00139125955591       -0.34513950804658       -0.00000017259920
F            2.99160037488445        3.79888702005319       -0.00000002018359
H            6.79348494561118        1.31078289093523       -0.00000026877415
S            4.58905971734361        0.29286949534293        0.00000052002409
C            5.75122020281413        1.55758674044825       -0.00000004430720
S            0.59279938243204        2.15356496359971        0.00000050779495
C            5.18304686549152        2.79160440677837       -0.00000017038069
C            1.40288025336987       -0.26385879910057        0.00000000321785
H           -1.61170574873178        1.13581709817062       -0.00000026052000
H            5.72006631879258        3.72151952015609       -0.00000050066825
C            1.90723867569836        1.01559440434984        0.00000047746701
C            3.77878801795051        2.71019002300019        0.00000000712022
F            2.18995972111014       -1.35263569915103       -0.00000002176724
C            3.27451049573811        1.43069512664778        0.00000048695529
H           -0.53849884128114       -1.27500386290798       -0.00000049722151
16
 energy: -35.095877247538 gnorm: 0.000905586976 xtb: 6.5.0 (746241f)
C           -0.56876840691817        0.88941553243398       -0.00000018020707
C           -0.00065208234504       -0.34489785168848       -0.00000019335416
F            2.99166833401111        3.79861781544747        0.00000031179990
H            6.79286457269668        1.31138150666391       -0.00000036328193
S            4.58836660506458        0.29319100714079        0.00000042861496
C            5.75051878549359        1.55708383556434       -0.00000018194283
S            0.59346706570105        2.15324284689800        0.00000041660893
C            5.18231499821525        2.79135751687397       -0.00000020276100
C            1.40314209699744       -0.26371428268642        0.00000002760584
H           -1.61109979149541        1.13518425355452       -0.00000036875971
H            5.71998893676319        3.72090664261196       -0.00000043408239
C            1.90717900023323        1.01588315688819        0.00000042921930
C            3.77853077729462        2.71006181968117        0.00000001885641
F            2.18991456023362       -1.35233646908340        0.00000028986518
C            3.27456198189158        1.43042913578029        0.00000042925454
H           -0.53839743383733       -1.27440646608028       -0.00000042743596
