16
 energy: -35.095877247597 gnorm: 0.000906116853 xtb: 6.5.0 (746241f)
C           -0.56876840691817        0.88941553243398       -0.00000018020707
C           -0.00065208234504       -0.34489785168848       -0.00000019335416
F            2.99166833401111        3.79861781544747        0.00000031179990
H            6.79286457269668        1.31138150666391       -0.00000036328193
S            4.58836660506458        0.29319100714079        0.00000042861496
C            5.75051878549359        1.55708383556434       -0.00000018194283
S            0.59346706570105        2.15324284689800        0.00000041660893
C            5.18231499821525        2.79135751687397       -0.00000020276100
C            1.40314209699744       -0.26371428268642        0.00000002760584
H           -1.61109979149541        1.13518425355452       -0.00000036875971
H            5.71998893676319        3.72090664261196       -0.00000043408239
C            1.90717900023323        1.01588315688819        0.00000042921930
C            3.77853077729462        2.71006181968117        0.00000001885641
F            2.18991456023362       -1.35233646908340        0.00000028986518
C            3.27456198189158        1.43042913578029        0.00000042925454
H           -0.53839743383733       -1.27440646608028       -0.00000042743596
