[Molden Format]
[Title]
[Atoms] AU
H      1     1 -0.37794518985944E+01  0.37794518985944E+01 -0.37794518985944E+01
H      2     1  0.37794518985944E+01 -0.37794518985944E+01  0.37794518985944E+01
[GTO]
           1 0
 s           3   1.00000000000000     
   3.37022769753360       0.273591105889083     
  0.613891182214980       0.264605406538605     
  0.166142911484160       8.246594753408232E-002
 
           2 0
 s           3   1.00000000000000     
   3.37022769753360       0.273591105889083     
  0.613891182214980       0.264605406538605     
  0.166142911484160       8.246594753408232E-002
 
[MO]
Sym=     1a
Ene=  -0.393487871631992     
Spin= Alpha
Occup=     1.00004622
           1  0.218654032785091     
           2  0.975802417826321     
Sym=     2a
Ene=  -0.393487695972640     
Spin= Alpha
Occup=     0.99995378
           1 -0.975802446133968     
           2  0.218654159115544     
