      -----------------------------------------------------------      
     |                   =====================                   |     
     |                           x T B                           |     
     |                   =====================                   |     
     |                         S. Grimme                         |     
     |          Mulliken Center for Theoretical Chemistry        |     
     |                    University of Bonn                     |     
      -----------------------------------------------------------      

   * xtb version 6.2.2 (655bc02) compiled by 'ehlert@majestix' on 2019-12-09

   This program is distributed in the hope that it will be useful,
   but WITHOUT ANY WARRANTY; without even the implied warranty of
   MERCHANTABILITY or FITNESS FOR A PARTICULAR PURPOSE.
   
   FOR NON-COMMERCIAL, ACADEMIA USE ONLY.
   
   Cite this work as:
   * S. Grimme, C. Bannwarth, P. Shushkov, J. Chem. Theory Comput., 2017,
     13, 1989-2009. DOI: 10.1021/acs.jctc.7b00118
   * C. Bannwarth, S. Ehlert and S. Grimme., J. Chem. Theory Comput., 2019,
     15, 1652-1671. DOI: 10.1021/acs.jctc.8b01176
   * P. Pracht, E. Caldeweyher, S. Ehlert, S. Grimme, ChemRxiv, 2019, preprint.
     DOI: 10.26434/chemrxiv.8326202.v1
   
   for DFT-D4:
   * E. Caldeweyher, C. Bannwarth and S. Grimme, J. Chem. Phys., 2017,
     147, 034112. DOI: 10.1063/1.4993215
   * E. Caldeweyher, S. Ehlert, A. Hansen, H. Neugebauer, S. Spicher,
     C. Bannwarth and S. Grimme, J. Chem. Phys., 2019, 150, 154122.
     DOI: 10.1063/1.5090222
   
   for sTDA-xTB:
   * S. Grimme and C. Bannwarth, J. Chem. Phys., 2016, 145, 054103.
     DOI: 10.1063/1.4959605
   
   in the mass-spec context:
   * V. Asgeirsson, C. Bauer and S. Grimme, Chem. Sci., 2017, 8, 4879.
     DOI: 10.1039/c7sc00601b
   
   for metadynamics refer to:
   * S. Grimme, J. Chem. Theory Comput., 2019, 155, 2847-2862
     DOI: 10.1021/acs.jctc.9b00143
   
   with help from (in alphabetical order)
   C. Bannwarth, F. Bohle, G. Brandenburg, E. Caldeweyher, M. Checinski,
   S. Dohm, S. Ehlert, S. Ehrlich, F. März, H. Neugebauer, J. Pisarek,
   P. Pracht, P. Shushkov, and S. Spicher.
   
 * started run on 2022/07/13 at 11:58:24.241     

           -------------------------------------------------
          |                Calculation Setup                |
           -------------------------------------------------

          program call               : xtb -c 0 -u 0 input.xyz --molden
          coordinate file            : input.xyz
          omp threads                :                     8
          number of atoms            :                     2
          number of electrons        :                     2
          charge                     :                     0
          spin                       :                   0.0
          first test random number   :      0.99092065134470


molecular fragmentation (1/2 indicates fragments):
12
# atoms in fragment 1/2:     1     1
 fragment masses (1/2) :        1.01        1.01
CMA distance (Bohr)    :  13.092
constraining FC (au)   :  0.0500

########################################################################
# WARNING! Please study the warnings concerning your input carefully
#  - XTBHOME is not set, using HOME instead
#  - XTBPATH is not set, using XTBHOME instead
########################################################################

           ------------------------------------------------- 
          |                 G F N 2 - x T B                 |
          | Geometry, Frequencies, Noncovalent interactions |
          |            JCTC 2019 parametrisation            |
           ------------------------------------------------- 
             k(s)              :                1.8500
             k(p)              :                2.2300
             k(d)              :                2.2300
             k(f)              :                2.0000
             kEN (H0ij)        :               -2.0000
             D4 a1             :                0.5200
             D4 a2             :                5.0000
             D4 s6             :                1.0000
             D4 s8             :                2.7000
             D4 s9             :                5.0000
             alphaj            :                2.0000

  Z AO/shell   Hii/eV     exponent
  1     Wed Apr 25 08:07:45 CEST 2018   EN: 2.200 GM2: 0.406  GM3: 0.0800  RAES: 1.40
     1s    -10.707211    1.230000

           ------------------------------------------------- 
          |        Self-Consistent Charge Iterations        |
           ------------------------------------------------- 
q/qsh data taken from xtbrestart
CAMM data taken from xtbrestart

          ...................................................
          :                      SETUP                      :
          :.................................................:
          :  # basis functions                   2          :
          :  # atomic orbitals                   2          :
          :  # shells                            2          :
          :  # electrons                         2          :
          :  max. iterations                   250          :
          :  Hamiltonian                  GFN2-xTB          :
          :  restarted?                       true          :
          :  GBSA solvation                  false          :
          :  PC potential                    false          :
          :  electronic temp.          300.0000000     K    :
          :  accuracy                    1.0000000          :
          :  -> integral cutoff          0.2500000E+02      :
          :  -> integral neglect         0.1000000E-07      :
          :  -> SCF convergence          0.1000000E-05 Eh   :
          :  -> wf. convergence          0.1000000E-03 e    :
          :  Broyden damping             0.4000000          :
          ...................................................

 iter      E             dE          RMSdq      gap      omega  full diag
   1     -0.7896014 -0.789601E+00  0.571E-01    0.00       0.0  T
   2     -0.7896014  0.119904E-13  0.343E-01    0.00       1.0  T
   3     -0.7896014  0.107803E-12  0.214E-05    0.00    3296.6  T
   4     -0.7896014  0.581133E-09  0.420E-04    0.00     168.2  T

   *** convergence criteria satisfied after 4 iterations ***

         #    Occupation            Energy/Eh            Energy/eV
      -------------------------------------------------------------
         1        1.0000           -0.3934879             -10.7073 (HOMO)
         2        1.0000           -0.3934877             -10.7073 (LUMO)
      -------------------------------------------------------------
                  HL-Gap            0.0000002 Eh            0.0000 eV
             Fermi-level           -0.3934878 Eh          -10.7073 eV

 SCC (total)                   0 d,  0 h,  0 min,  0.021 sec
 SCC setup                      ...        0 min,  0.000 sec (  0.302%)
 Dispersion                     ...        0 min,  0.000 sec (  0.088%)
 integral evaluation            ...        0 min,  0.019 sec ( 91.454%)
 zeroth order Hamiltonian       ...        0 min,  0.000 sec (  0.102%)
 iterations                     ...        0 min,  0.001 sec (  2.572%)
 molecular gradient             ...        0 min,  0.001 sec (  3.600%)
 printout                       ...        0 min,  0.000 sec (  1.792%)

         :::::::::::::::::::::::::::::::::::::::::::::::::::::
         ::                     SUMMARY                     ::
         :::::::::::::::::::::::::::::::::::::::::::::::::::::
         :: total energy              -0.789601374902 Eh    ::
         :: gradient norm              0.000001189325 Eh/a0 ::
         :: HOMO-LUMO gap              0.000004779934 eV    ::
         ::.................................................::
         :: SCC energy                -0.789601374902 Eh    ::
         :: -> isotropic ES            0.000000000578 Eh    ::
         :: -> anisotropic ES          0.000000000000 Eh    ::
         :: -> anisotropic XC          0.000000000000 Eh    ::
         :: -> dispersion             -0.000001770337 Eh    ::
         :: repulsion energy           0.000000000000 Eh    ::
         :: add. restraining           0.000000000000 Eh    ::
         :::::::::::::::::::::::::::::::::::::::::::::::::::::

           -------------------------------------------------
          |                Property Printout                |
           -------------------------------------------------

    * Orbital Energies and Occupations

         #    Occupation            Energy/Eh            Energy/eV
      -------------------------------------------------------------
         1        1.0000           -0.3934879             -10.7073 (HOMO)
         2        1.0000           -0.3934877             -10.7073 (LUMO)
      -------------------------------------------------------------
                  HL-Gap            0.0000002 Eh            0.0000 eV
             Fermi-level           -0.3934878 Eh          -10.7073 eV

     #   Z        covCN         q      C6AA      α(0)
     1   1 H      0.000     0.000     7.620     5.048
     2   1 H      0.000    -0.000     7.620     5.048

 Mol. C6AA /au·bohr⁶  :         30.481899
 Mol. C8AA /au·bohr⁸  :        368.475859
 Mol. α(0) /au        :         10.095238


Wiberg/Mayer (AO) data.
largest (>0.10) Wiberg bond orders for each atom
          total WBO             WBO to atom ...
     1  H   0.000
     2  H   0.000

MOs/occ written to file <molden.input>


molecular dipole:
                 x           y           z       tot (Debye)
 q only:       -0.000       0.000      -0.000
   full:       -0.000       0.000      -0.000       0.000
molecular quadrupole (traceless):
                xx          xy          yy          xz          yz          zz
 q only:        0.000      -0.000       0.000       0.000      -0.000       0.000
  q+dip:        0.000      -0.000      -0.000       0.000      -0.000      -0.000
   full:        0.000      -0.000       0.000       0.000      -0.000       0.000


           -------------------------------------------------
          | TOTAL ENERGY               -0.789601374902 Eh   |
          | GRADIENT NORM               0.000001189325 Eh/α |
          | HOMO-LUMO GAP               0.000004779934 eV   |
           -------------------------------------------------

------------------------------------------------------------------------
 * finished run on 2022/07/13 at 11:58:24.418     
------------------------------------------------------------------------
 total:
 * wall-time:     0 d,  0 h,  0 min,  0.177 sec
 *  cpu-time:     0 d,  0 h,  0 min,  0.751 sec
 * ratio c/w:     4.235 speedup
 SCF:
 * wall-time:     0 d,  0 h,  0 min,  0.021 sec
 *  cpu-time:     0 d,  0 h,  0 min,  0.108 sec
 * ratio c/w:     5.205 speedup

