3
 energy: -5.070322519569 gnorm: 0.017399456377 xtb: 6.5.0 (746241f)
O           -2.21481000000000        1.17375000000000        0.00000000000000
H           -1.40580000000000        1.43755000000000        0.42239000000000
H           -2.66150000000000        0.53453000000000        0.54256000000000
3
 energy: -5.070491991209 gnorm: 0.006408043624 xtb: 6.5.0 (746241f)
O           -2.21678623947214        1.17579674987715       -0.00526174557843
H           -1.40360105042232        1.43739724133920        0.42490521051978
H           -2.66172271010554        0.53263600878365        0.54530653505866
3
 energy: -5.070538031749 gnorm: 0.001437671136 xtb: 6.5.0 (746241f)
O           -2.21864154884833        1.17771871266919       -0.01020223367352
H           -1.40433130079161        1.43524393791681        0.42753421224727
H           -2.65913715036007        0.53286734941400        0.54761802142625
3
 energy: -5.070543965338 gnorm: 0.000886287506 xtb: 6.5.0 (746241f)
O           -2.21948268010854        1.17859029214300       -0.01244243659198
H           -1.40615099859295        1.43319709769392        0.42886869779555
H           -2.65647632129851        0.53404261016308        0.54852373879643
3
 energy: -5.070544427122 gnorm: 0.000184680240 xtb: 6.5.0 (746241f)
O           -2.21931692996973        1.17841865596124       -0.01200116982549
H           -1.40641984354101        1.43314919342122        0.42866583743891
H           -2.65637322648927        0.53426215061754        0.54828533238657
