[Molden Format]
[Title]
[Atoms] AU
H      1     1  0.18897259492972E+00 -0.18897259492972E+00  0.18897259492972E+00
[GTO]
           1 0
 s           3   1.00000000000000     
   3.37022769753360       0.273591105889083     
  0.613891182214980       0.264605406538605     
  0.166142911484160       8.246594753408232E-002
 
[MO]
Sym=     1a
Ene=  -0.393482763910082     
Spin= Alpha
Occup=     1.00000000
           1  0.999999999967101     
