1
 energy: -0.393482763936 gnorm: 0.000000000000 xtb: 6.5.0 (746241f)
H            1.00000000000000       -1.00000000000000        1.00000000000000
