      -----------------------------------------------------------      
     |                   =====================                   |     
     |                           x T B                           |     
     |                   =====================                   |     
     |                         S. Grimme                         |     
     |          Mulliken Center for Theoretical Chemistry        |     
     |                    University of Bonn                     |     
      -----------------------------------------------------------      

   * xtb version 6.2.2 (655bc02) compiled by 'ehlert@majestix' on 2019-12-09

   This program is distributed in the hope that it will be useful,
   but WITHOUT ANY WARRANTY; without even the implied warranty of
   MERCHANTABILITY or FITNESS FOR A PARTICULAR PURPOSE.
   
   FOR NON-COMMERCIAL, ACADEMIA USE ONLY.
   
   Cite this work as:
   * S. Grimme, C. Bannwarth, P. Shushkov, J. Chem. Theory Comput., 2017,
     13, 1989-2009. DOI: 10.1021/acs.jctc.7b00118
   * C. Bannwarth, S. Ehlert and S. Grimme., J. Chem. Theory Comput., 2019,
     15, 1652-1671. DOI: 10.1021/acs.jctc.8b01176
   * P. Pracht, E. Caldeweyher, S. Ehlert, S. Grimme, ChemRxiv, 2019, preprint.
     DOI: 10.26434/chemrxiv.8326202.v1
   
   for DFT-D4:
   * E. Caldeweyher, C. Bannwarth and S. Grimme, J. Chem. Phys., 2017,
     147, 034112. DOI: 10.1063/1.4993215
   * E. Caldeweyher, S. Ehlert, A. Hansen, H. Neugebauer, S. Spicher,
     C. Bannwarth and S. Grimme, J. Chem. Phys., 2019, 150, 154122.
     DOI: 10.1063/1.5090222
   
   for sTDA-xTB:
   * S. Grimme and C. Bannwarth, J. Chem. Phys., 2016, 145, 054103.
     DOI: 10.1063/1.4959605
   
   in the mass-spec context:
   * V. Asgeirsson, C. Bauer and S. Grimme, Chem. Sci., 2017, 8, 4879.
     DOI: 10.1039/c7sc00601b
   
   for metadynamics refer to:
   * S. Grimme, J. Chem. Theory Comput., 2019, 155, 2847-2862
     DOI: 10.1021/acs.jctc.9b00143
   
   with help from (in alphabetical order)
   C. Bannwarth, F. Bohle, G. Brandenburg, E. Caldeweyher, M. Checinski,
   S. Dohm, S. Ehlert, S. Ehrlich, F. März, H. Neugebauer, J. Pisarek,
   P. Pracht, P. Shushkov, and S. Spicher.
   
 * started run on 2022/07/20 at 09:54:42.030     

           -------------------------------------------------
          |                Calculation Setup                |
           -------------------------------------------------

          program call               : xtb -c 0 -u 0 input.xyz
          coordinate file            : input.xyz
          omp threads                :                     1
          number of atoms            :                    24
          number of electrons        :                    60
          charge                     :                     0
          spin                       :                   0.0
          first test random number   :      0.47650529653903


molecular fragmentation (1/2 indicates fragments):
111111111111222222222222
# atoms in fragment 1/2:    12    12
 fragment masses (1/2) :       78.11       78.11
CMA distance (Bohr)    :   6.047
constraining FC (au)   :  0.0500

########################################################################
# WARNING! Please study the warnings concerning your input carefully
#  - XTBHOME is not set, using HOME instead
#  - XTBPATH is not set, using XTBHOME instead
########################################################################

           ------------------------------------------------- 
          |                 G F N 2 - x T B                 |
          | Geometry, Frequencies, Noncovalent interactions |
          |            JCTC 2019 parametrisation            |
           ------------------------------------------------- 
             k(s)              :                1.8500
             k(p)              :                2.2300
             k(d)              :                2.2300
             k(f)              :                2.0000
             kEN (H0ij)        :               -2.0000
             D4 a1             :                0.5200
             D4 a2             :                5.0000
             D4 s6             :                1.0000
             D4 s8             :                2.7000
             D4 s9             :                5.0000
             alphaj            :                2.0000

  Z AO/shell   Hii/eV     exponent
  1     Wed Apr 25 08:07:45 CEST 2018   EN: 2.200 GM2: 0.406  GM3: 0.0800  RAES: 1.40
     1s    -10.707211    1.230000
  6     Wed Apr 25 08:07:45 CEST 2018   EN: 2.550 GM2: 0.538  GM3: 0.1500  RAES: 3.00
     2s    -13.970922    2.096432
     2p    -10.063292    1.800000

           ------------------------------------------------- 
          |        Self-Consistent Charge Iterations        |
           ------------------------------------------------- 

          ...................................................
          :                      SETUP                      :
          :.................................................:
          :  # basis functions                  60          :
          :  # atomic orbitals                  60          :
          :  # shells                           36          :
          :  # electrons                        60          :
          :  max. iterations                   250          :
          :  Hamiltonian                  GFN2-xTB          :
          :  restarted?                      false          :
          :  GBSA solvation                  false          :
          :  PC potential                    false          :
          :  electronic temp.          300.0000000     K    :
          :  accuracy                    1.0000000          :
          :  -> integral cutoff          0.2500000E+02      :
          :  -> integral neglect         0.1000000E-07      :
          :  -> SCF convergence          0.1000000E-05 Eh   :
          :  -> wf. convergence          0.1000000E-03 e    :
          :  Broyden damping             0.4000000          :
          ...................................................

 iter      E             dE          RMSdq      gap      omega  full diag
   1    -32.3640364 -0.323640E+02  0.488E+00    4.52       0.0  T
   2    -32.3973162 -0.332798E-01  0.292E+00    4.49       1.0  T
   3    -32.3980419 -0.725763E-03  0.513E-01    4.46       1.0  T
   4    -32.3985912 -0.549300E-03  0.547E-02    4.46       1.0  T
   5    -32.3985914 -0.143396E-06  0.537E-03    4.46       3.8  T
   6    -32.3985914 -0.793989E-08  0.105E-03    4.46      19.4  T
   7    -32.3985914 -0.217291E-09  0.569E-05    4.46     359.0  T
   8    -32.3985914 -0.809806E-10  0.205E-05    4.46     997.5  T

   *** convergence criteria satisfied after 8 iterations ***

         #    Occupation            Energy/Eh            Energy/eV
      -------------------------------------------------------------
         1        2.0000           -0.6385231             -17.3751
       ...           ...                  ...                  ...
        24        2.0000           -0.4206262             -11.4458
        25        2.0000           -0.4180646             -11.3761
        26        2.0000           -0.4180644             -11.3761
        27        2.0000           -0.4083212             -11.1110
        28        2.0000           -0.4083211             -11.1110
        29        2.0000           -0.3903869             -10.6230
        30        2.0000           -0.3903868             -10.6230 (HOMO)
        31                         -0.2265061              -6.1635 (LUMO)
        32                         -0.2265060              -6.1635
        33                         -0.2104220              -5.7259
        34                         -0.2104219              -5.7259
        35                         -0.0939982              -2.5578
       ...                                ...                  ...
        60                          0.6785801              18.4651
      -------------------------------------------------------------
                  HL-Gap            0.1638807 Eh            4.4594 eV
             Fermi-level           -0.3084464 Eh           -8.3933 eV

 SCC (total)                   0 d,  0 h,  0 min,  0.020 sec
 SCC setup                      ...        0 min,  0.000 sec (  0.637%)
 Dispersion                     ...        0 min,  0.000 sec (  0.798%)
 integral evaluation            ...        0 min,  0.005 sec ( 25.908%)
 zeroth order Hamiltonian       ...        0 min,  0.000 sec (  0.450%)
 iterations                     ...        0 min,  0.004 sec ( 21.930%)
 molecular gradient             ...        0 min,  0.008 sec ( 41.006%)
 printout                       ...        0 min,  0.002 sec (  9.061%)

         :::::::::::::::::::::::::::::::::::::::::::::::::::::
         ::                     SUMMARY                     ::
         :::::::::::::::::::::::::::::::::::::::::::::::::::::
         :: total energy             -31.764546249410 Eh    ::
         :: gradient norm              0.004322772431 Eh/a0 ::
         :: HOMO-LUMO gap              4.459421743531 eV    ::
         ::.................................................::
         :: SCC energy               -32.398591395774 Eh    ::
         :: -> isotropic ES            0.001661788255 Eh    ::
         :: -> anisotropic ES          0.006184057245 Eh    ::
         :: -> anisotropic XC          0.024877412245 Eh    ::
         :: -> dispersion             -0.026195061943 Eh    ::
         :: repulsion energy           0.633693024386 Eh    ::
         :: add. restraining           0.000000000000 Eh    ::
         :::::::::::::::::::::::::::::::::::::::::::::::::::::

           -------------------------------------------------
          |                Property Printout                |
           -------------------------------------------------

    * Orbital Energies and Occupations

         #    Occupation            Energy/Eh            Energy/eV
      -------------------------------------------------------------
         1        2.0000           -0.6385231             -17.3751
       ...           ...                  ...                  ...
        18        2.0000           -0.4753815             -12.9358
        19        2.0000           -0.4753812             -12.9358
        20        2.0000           -0.4726993             -12.8628
        21        2.0000           -0.4726990             -12.8628
        22        2.0000           -0.4620816             -12.5739
        23        2.0000           -0.4206264             -11.4458
        24        2.0000           -0.4206262             -11.4458
        25        2.0000           -0.4180646             -11.3761
        26        2.0000           -0.4180644             -11.3761
        27        2.0000           -0.4083212             -11.1110
        28        2.0000           -0.4083211             -11.1110
        29        2.0000           -0.3903869             -10.6230
        30        2.0000           -0.3903868             -10.6230 (HOMO)
        31                         -0.2265061              -6.1635 (LUMO)
        32                         -0.2265060              -6.1635
        33                         -0.2104220              -5.7259
        34                         -0.2104219              -5.7259
        35                         -0.0939982              -2.5578
        36                         -0.0808452              -2.1999
        37                          0.1138520               3.0981
        38                          0.1258143               3.4236
        39                          0.1362517               3.7076
        40                          0.1425382               3.8787
        41                          0.1706432               4.6434
       ...                                ...                  ...
        60                          0.6785801              18.4651
      -------------------------------------------------------------
                  HL-Gap            0.1638807 Eh            4.4594 eV
             Fermi-level           -0.3084464 Eh           -8.3933 eV

     #   Z        covCN         q      C6AA      α(0)
     1   1 H      0.926     0.028     2.613     2.528
     2   6 C      2.920    -0.028    28.703     8.786
     3   6 C      2.920    -0.028    28.703     8.786
     4   1 H      0.926     0.028     2.613     2.528
     5   6 C      2.920    -0.028    28.703     8.786
     6   1 H      0.926     0.028     2.613     2.528
     7   6 C      2.920    -0.028    28.703     8.786
     8   1 H      0.926     0.028     2.613     2.528
     9   6 C      2.920    -0.028    28.703     8.786
    10   1 H      0.926     0.028     2.613     2.528
    11   6 C      2.920    -0.028    28.703     8.786
    12   1 H      0.926     0.028     2.613     2.528
    13   1 H      0.926     0.028     2.613     2.528
    14   6 C      2.920    -0.028    28.703     8.786
    15   6 C      2.920    -0.028    28.703     8.786
    16   1 H      0.926     0.028     2.613     2.528
    17   6 C      2.920    -0.028    28.703     8.786
    18   1 H      0.926     0.028     2.613     2.528
    19   6 C      2.920    -0.028    28.703     8.786
    20   1 H      0.926     0.028     2.613     2.528
    21   6 C      2.920    -0.028    28.703     8.786
    22   1 H      0.926     0.028     2.613     2.528
    23   6 C      2.920    -0.028    28.703     8.786
    24   1 H      0.926     0.028     2.613     2.528

 Mol. C6AA /au·bohr⁶  :       7000.489201
 Mol. C8AA /au·bohr⁸  :     170665.872318
 Mol. α(0) /au        :        135.762848


Wiberg/Mayer (AO) data.
largest (>0.10) Wiberg bond orders for each atom
          total WBO             WBO to atom ...
     1  H   0.999        C    2 0.972
     2  C   3.993        C    3 1.441    C   11 1.441    H    1 0.972    C    7 0.114
     3  C   3.993        C    2 1.441    C    5 1.441    H    4 0.972    C    9 0.114
     4  H   0.999        C    3 0.972
     5  C   3.993        C    7 1.441    C    3 1.441    H    6 0.972    C   11 0.114
     6  H   0.999        C    5 0.972
     7  C   3.993        C    5 1.441    C    9 1.441    H    8 0.972    C    2 0.114
     8  H   0.999        C    7 0.972
     9  C   3.993        C   11 1.441    C    7 1.441    H   10 0.972    C    3 0.114
    10  H   0.999        C    9 0.972
    11  C   3.993        C    9 1.441    C    2 1.441    H   12 0.972    C    5 0.114
    12  H   0.999        C   11 0.972
    13  H   0.999        C   14 0.972
    14  C   3.993        C   15 1.441    C   23 1.441    H   13 0.972    C   19 0.114
    15  C   3.993        C   14 1.441    C   17 1.441    H   16 0.972    C   21 0.114
    16  H   0.999        C   15 0.972
    17  C   3.993        C   19 1.441    C   15 1.441    H   18 0.972    C   23 0.114
    18  H   0.999        C   17 0.972
    19  C   3.993        C   17 1.441    C   21 1.441    H   20 0.972    C   14 0.114
    20  H   0.999        C   19 0.972
    21  C   3.993        C   23 1.441    C   19 1.441    H   22 0.972    C   15 0.114
    22  H   0.999        C   21 0.972
    23  C   3.993        C   21 1.441    C   14 1.441    H   24 0.972    C   17 0.114
    24  H   0.999        C   23 0.972

molecular dipole:
                 x           y           z       tot (Debye)
 q only:        0.000       0.000      -0.000
   full:       -0.000      -0.000      -0.000       0.000
molecular quadrupole (traceless):
                xx          xy          yy          xz          yz          zz
 q only:        1.253       0.000       1.253       0.000      -0.000      -2.507
  q+dip:        5.473      -0.000       5.473       0.000      -0.000     -10.946
   full:        2.768      -0.000       2.768       0.000      -0.000      -5.536


           -------------------------------------------------
          | TOTAL ENERGY              -31.764546249410 Eh   |
          | GRADIENT NORM               0.004322772431 Eh/α |
          | HOMO-LUMO GAP               4.459421743531 eV   |
           -------------------------------------------------

------------------------------------------------------------------------
 * finished run on 2022/07/20 at 09:54:42.065     
------------------------------------------------------------------------
 total:
 * wall-time:     0 d,  0 h,  0 min,  0.035 sec
 *  cpu-time:     0 d,  0 h,  0 min,  0.029 sec
 * ratio c/w:     0.818 speedup
 SCF:
 * wall-time:     0 d,  0 h,  0 min,  0.020 sec
 *  cpu-time:     0 d,  0 h,  0 min,  0.018 sec
 * ratio c/w:     0.914 speedup

