      -----------------------------------------------------------      
     |                   =====================                   |     
     |                           x T B                           |     
     |                   =====================                   |     
     |                         S. Grimme                         |     
     |          Mulliken Center for Theoretical Chemistry        |     
     |                    University of Bonn                     |     
      -----------------------------------------------------------      

   * xtb version 6.5.0 (746241f) compiled by 'ehlert@majestix' on 2022-05-15

   xtb is free software: you can redistribute it and/or modify it under
   the terms of the GNU Lesser General Public License as published by
   the Free Software Foundation, either version 3 of the License, or
   (at your option) any later version.
   
   xtb is distributed in the hope that it will be useful,
   but WITHOUT ANY WARRANTY; without even the implied warranty of
   MERCHANTABILITY or FITNESS FOR A PARTICULAR PURPOSE.  See the
   GNU Lesser General Public License for more details.
   
   Cite this work as:
   * C. Bannwarth, E. Caldeweyher, S. Ehlert, A. Hansen, P. Pracht,
     J. Seibert, S. Spicher, S. Grimme, WIREs Comput. Mol. Sci., 2020, 11,
     e01493. DOI: 10.1002/wcms.1493
   
   for GFN2-xTB:
   * C. Bannwarth, S. Ehlert and S. Grimme., J. Chem. Theory Comput., 2019,
     15, 1652-1671. DOI: 10.1021/acs.jctc.8b01176
   for GFN1-xTB:
   * S. Grimme, C. Bannwarth, P. Shushkov, J. Chem. Theory Comput., 2017,
     13, 1989-2009. DOI: 10.1021/acs.jctc.7b00118
   for GFN0-xTB:
   * P. Pracht, E. Caldeweyher, S. Ehlert, S. Grimme, ChemRxiv, 2019, preprint.
     DOI: 10.26434/chemrxiv.8326202.v1
   for GFN-FF:
   * S. Spicher and S. Grimme, Angew. Chem. Int. Ed., 2020, 59, 15665-15673.
     DOI: 10.1002/anie.202004239
   
   for ALPB and GBSA implicit solvation:
   * S. Ehlert, M. Stahn, S. Spicher, S. Grimme, J. Chem. Theory Comput.,
     2021, 17, 4250-4261. DOI: 10.1021/acs.jctc.1c00471
   
   for DFT-D4:
   * E. Caldeweyher, C. Bannwarth and S. Grimme, J. Chem. Phys., 2017,
     147, 034112. DOI: 10.1063/1.4993215
   * E. Caldeweyher, S. Ehlert, A. Hansen, H. Neugebauer, S. Spicher,
     C. Bannwarth and S. Grimme, J. Chem. Phys., 2019, 150, 154122.
     DOI: 10.1063/1.5090222
   * E. Caldeweyher, J.-M. Mewes, S. Ehlert and S. Grimme, Phys. Chem. Chem. Phys.
     2020, 22, 8499-8512. DOI: 10.1039/D0CP00502A
   
   for sTDA-xTB:
   * S. Grimme and C. Bannwarth, J. Chem. Phys., 2016, 145, 054103.
     DOI: 10.1063/1.4959605
   
   in the mass-spec context:
   * V. Asgeirsson, C. Bauer and S. Grimme, Chem. Sci., 2017, 8, 4879.
     DOI: 10.1039/c7sc00601b
   * J. Koopman and S. Grimme, ACS Omega 2019, 4, 12, 15120-15133.
     DOI: 10.1021/acsomega.9b02011
   
   for metadynamics refer to:
   * S. Grimme, J. Chem. Theory Comput., 2019, 155, 2847-2862
     DOI: 10.1021/acs.jctc.9b00143
   
   for SPH calculations refer to:
   * S. Spicher and S. Grimme, J. Chem. Theory Comput., 2021, 17, 1701-1714
     DOI: 10.1021/acs.jctc.0c01306
   
   with help from (in alphabetical order)
   P. Atkinson, C. Bannwarth, F. Bohle, G. Brandenburg, E. Caldeweyher
   M. Checinski, S. Dohm, S. Ehlert, S. Ehrlich, I. Gerasimov, C. Hölzer
   A. Katbashev, J. Koopman, C. Lavigne, S. Lehtola, F. März, M. Müller,
   F. Musil, H. Neugebauer, J. Pisarek, C. Plett, P. Pracht, F. Pultar,
   J. Seibert, P. Shushkov, S. Spicher, M. Stahn, M. Steiner, T. Strunk,
   J. Stückrath, T. Rose, and J. Unsleber
   
 * started run on 2022/07/14 at 15:23:24.182     

           -------------------------------------------------
          |                Calculation Setup                |
           -------------------------------------------------

          program call               : xtb -c 0 -u 0 e2.xyz --opt normal
          coordinate file            : e2.xyz
          omp threads                :                    16

   ID    Z sym.   atoms
    1    6 C      1, 2, 6, 8, 9, 12, 13, 15
    2    9 F      3, 14
    3    1 H      4, 10, 11, 16
    4   16 S      5, 7

           -------------------------------------------------
          |                 G F N 2 - x T B                 |
           -------------------------------------------------

        Reference                      10.1021/acs.jctc.8b01176
      * Hamiltonian:
        H0-scaling (s, p, d)           1.850000    2.230000    2.230000
        zeta-weighting                 0.500000
      * Dispersion:
        s8                             2.700000
        a1                             0.520000
        a2                             5.000000
        s9                             5.000000
      * Repulsion:
        kExp                           1.500000    1.000000
        rExp                           1.000000
      * Coulomb:
        alpha                          2.000000
        third order                    shell-resolved
        anisotropic                    true
        a3                             3.000000
        a5                             4.000000
        cn-shift                       1.200000
        cn-exp                         4.000000
        max-rad                        5.000000

q/qsh data taken from xtbrestart
CAMM data taken from xtbrestart

          ...................................................
          :                      SETUP                      :
          :.................................................:
          :  # basis functions                  64          :
          :  # atomic orbitals                  62          :
          :  # shells                           30          :
          :  # electrons                        62          :
          :  max. iterations                   250          :
          :  Hamiltonian                  GFN2-xTB          :
          :  restarted?                       true          :
          :  GBSA solvation                  false          :
          :  PC potential                    false          :
          :  electronic temp.          300.0000000     K    :
          :  accuracy                    1.0000000          :
          :  -> integral cutoff          0.2500000E+02      :
          :  -> integral neglect         0.1000000E-07      :
          :  -> SCF convergence          0.1000000E-05 Eh   :
          :  -> wf. convergence          0.1000000E-03 e    :
          :  Broyden damping             0.4000000          :
          ...................................................

 iter      E             dE          RMSdq      gap      omega  full diag
   1    -35.2860296 -0.352860E+02  0.593E+00    3.34       0.0  T
   2    -35.3174917 -0.314620E-01  0.444E+00    4.20       1.0  T
   3    -35.2989135  0.185781E-01  0.195E+00    3.56       1.0  T
   4    -35.3499690 -0.510555E-01  0.400E-01    3.93       1.0  T
   5    -35.3499120  0.570627E-04  0.212E-01    3.95       1.0  T
   6    -35.3503505 -0.438565E-03  0.390E-02    3.93       1.0  T
   7    -35.3503536 -0.303284E-05  0.173E-02    3.94       1.4  T
   8    -35.3503542 -0.674636E-06  0.462E-03    3.94       5.4  T
   9    -35.3503543 -0.359889E-07  0.195E-03    3.94      12.8  T
  10    -35.3503543 -0.100355E-07  0.717E-04    3.94      34.9  T
  11    -35.3503543 -0.588395E-08  0.180E-04    3.94     139.0  T

   *** convergence criteria satisfied after 11 iterations ***

         #    Occupation            Energy/Eh            Energy/eV
      -------------------------------------------------------------
         1        2.0000           -0.9066520             -24.6713
       ...           ...                  ...                  ...
        25        2.0000           -0.4507196             -12.2647
        26        2.0000           -0.4422685             -12.0347
        27        2.0000           -0.4293836             -11.6841
        28        2.0000           -0.4283867             -11.6570
        29        2.0000           -0.4084080             -11.1133
        30        2.0000           -0.3766281             -10.2486
        31        2.0000           -0.3680832             -10.0161 (HOMO)
        32                         -0.2234358              -6.0800 (LUMO)
        33                         -0.2175184              -5.9190
        34                         -0.2145562              -5.8384
        35                         -0.1903134              -5.1787
        36                         -0.1498195              -4.0768
       ...                                ...                  ...
        62                          6.7855913             184.6453
      -------------------------------------------------------------
                  HL-Gap            0.1446474 Eh            3.9361 eV
             Fermi-level           -0.2957595 Eh           -8.0480 eV

 SCC (total)                   0 d,  0 h,  0 min,  0.010 sec
 SCC setup                      ...        0 min,  0.000 sec (  0.878%)
 Dispersion                     ...        0 min,  0.000 sec (  0.705%)
 classical contributions        ...        0 min,  0.000 sec (  0.224%)
 integral evaluation            ...        0 min,  0.001 sec (  7.498%)
 iterations                     ...        0 min,  0.007 sec ( 70.031%)
 molecular gradient             ...        0 min,  0.002 sec ( 19.516%)
 printout                       ...        0 min,  0.000 sec (  1.000%)

         :::::::::::::::::::::::::::::::::::::::::::::::::::::
         ::                     SUMMARY                     ::
         :::::::::::::::::::::::::::::::::::::::::::::::::::::
         :: total energy             -33.411759258290 Eh    ::
         :: gradient norm              3.937024108123 Eh/a0 ::
         :: HOMO-LUMO gap              3.936057079298 eV    ::
         ::.................................................::
         :: SCC energy               -35.350354291805 Eh    ::
         :: -> isotropic ES            0.018342936987 Eh    ::
         :: -> anisotropic ES          0.008831064270 Eh    ::
         :: -> anisotropic XC         -0.018360983595 Eh    ::
         :: -> dispersion             -0.018028331830 Eh    ::
         :: repulsion energy           1.938597204602 Eh    ::
         :: add. restraining           0.000000000000 Eh    ::
         :: total charge              -0.000000000000 e     ::
         :::::::::::::::::::::::::::::::::::::::::::::::::::::

      ----------------------------------------------------------- 
     |                   =====================                   |
     |                        A N C O P T                        |
     |                   =====================                   |
     |               Approximate Normal Coordinate               |
     |                Rational Function Optimizer                |
      ----------------------------------------------------------- 

          ...................................................
          :                      SETUP                      :
          :.................................................:
          :   optimization level            normal          :
          :   max. optcycles                   200          :
          :   ANC micro-cycles                  20          :
          :   degrees of freedom                42          :
          :.................................................:
          :   RF solver                   davidson          :
          :   write xtbopt.log                true          :
          :   linear?                        false          :
          :   energy convergence         0.5000000E-05 Eh   :
          :   grad. convergence          0.1000000E-02 Eh/α :
          :   maximium RF displ.         1.0000000          :
          :   Hlow (freq-cutoff)         0.1000000E-01      :
          :   Hmax (freq-cutoff)         5.0000000          :
          :   S6 in model hess.         20.0000000          :
          ...................................................

generating ANC from model Hessian ...
Using Lindh-Hessian (1995)
 Shifting diagonal of input Hessian by   0.000000000000000E+000
 Lowest  eigenvalues of input Hessian
    0.000000    0.000000    0.000000    0.000000    0.000000    0.000000
    0.010094    0.011121    0.015699    0.040733    0.043123    0.068912
    0.081765    0.088936    0.103767    0.108838    0.130626    0.145838
 Highest eigenvalues
    3.505163    3.507496    5.280443    5.481596    6.752327    6.937044
 

........................................................................
.............................. CYCLE    1 ..............................
........................................................................
   1    -35.3503543 -0.353504E+02  0.944E-05    3.94       0.0  T
   2    -35.3503543 -0.209326E-10  0.517E-05    3.94     483.7  T
   3    -35.3503543 -0.637357E-11  0.356E-05    3.94     702.3  T
     SCC iter.                  ...        0 min,  0.004 sec
     gradient                   ...        0 min,  0.001 sec
 * total energy  :   -33.4117593 Eh     change       -0.6548362E-10 Eh
   gradient norm :     3.9370249 Eh/α   predicted     0.0000000E+00 (-100.00%)
   displ. norm   :     0.6238122 α      lambda       -0.2350224E+01
   maximum displ.:     0.4859392 α      in ANC's #39, #26, #38, ...

........................................................................
.............................. CYCLE    2 ..............................
........................................................................
   1    -35.4956010 -0.354956E+02  0.264E+00    4.50       0.0  T
   2    -35.5066113 -0.110103E-01  0.161E+00    4.13       1.0  T
   3    -35.5092037 -0.259244E-02  0.862E-01    4.30       1.0  T
   4    -35.5125396 -0.333585E-02  0.257E-01    4.19       1.0  T
   5    -35.5130690 -0.529406E-03  0.116E-01    4.19       1.0  T
   6    -35.5131322 -0.631682E-04  0.184E-02    4.20       1.4  T
   7    -35.5131328 -0.644064E-06  0.751E-03    4.20       3.3  T
   8    -35.5131329 -0.637056E-07  0.364E-03    4.20       6.9  T
   9    -35.5131329 -0.218533E-07  0.951E-04    4.20      26.3  T
  10    -35.5131329 -0.947153E-09  0.442E-04    4.20      56.6  T
     SCC iter.                  ...        0 min,  0.006 sec
     gradient                   ...        0 min,  0.001 sec
 * total energy  :   -34.6194367 Eh     change       -0.1207677E+01 Eh
   gradient norm :     0.9688938 Eh/α   predicted    -0.1632397E+01 (  35.17%)
   displ. norm   :     0.4958466 α      lambda       -0.4013920E+00
   maximum displ.:     0.3613231 α      in ANC's #26, #28, #24, ...

........................................................................
.............................. CYCLE    3 ..............................
........................................................................
   1    -35.5292041 -0.355292E+02  0.119E+00    4.12       0.0  T
   2    -35.5333856 -0.418144E-02  0.797E-01    3.94       1.0  T
   3    -35.5338032 -0.417638E-03  0.329E-01    4.01       1.0  T
   4    -35.5341883 -0.385116E-03  0.168E-01    3.96       1.0  T
   5    -35.5343672 -0.178846E-03  0.663E-02    3.97       1.0  T
   6    -35.5343903 -0.231082E-04  0.139E-02    3.97       1.8  T
   7    -35.5343904 -0.103943E-06  0.737E-03    3.97       3.4  T
   8    -35.5343904 -0.256157E-07  0.378E-03    3.97       6.6  T
   9    -35.5343905 -0.108594E-06  0.827E-04    3.97      30.2  T
  10    -35.5343905 -0.603904E-09  0.264E-04    3.97      94.6  T
     SCC iter.                  ...        0 min,  0.006 sec
     gradient                   ...        0 min,  0.001 sec
 * total energy  :   -34.8965028 Eh     change       -0.2770661E+00 Eh
   gradient norm :     0.5075187 Eh/α   predicted    -0.2500399E+00 (  -9.75%)
   displ. norm   :     0.4453275 α      lambda       -0.1569946E+00
   maximum displ.:     0.2329664 α      in ANC's #26, #6, #24, ...

........................................................................
.............................. CYCLE    4 ..............................
........................................................................
   1    -35.5292044 -0.355292E+02  0.842E-01    3.90       0.0  T
   2    -35.5303773 -0.117289E-02  0.650E-01    3.83       1.0  T
   3    -35.5304335 -0.561348E-04  0.287E-01    3.85       1.0  T
   4    -35.5313371 -0.903588E-03  0.969E-02    3.84       1.0  T
   5    -35.5313826 -0.455675E-04  0.432E-02    3.83       1.0  T
   6    -35.5313886 -0.600658E-05  0.819E-03    3.83       3.1  T
   7    -35.5313887 -0.252095E-07  0.370E-03    3.83       6.8  T
   8    -35.5313887 -0.132148E-07  0.202E-03    3.83      12.4  T
   9    -35.5313887 -0.277476E-07  0.568E-04    3.83      44.0  T
  10    -35.5313887 -0.627793E-09  0.216E-04    3.83     115.8  T
     SCC iter.                  ...        0 min,  0.006 sec
     gradient                   ...        0 min,  0.001 sec
 * total energy  :   -35.0109424 Eh     change       -0.1144396E+00 Eh
   gradient norm :     0.2780436 Eh/α   predicted    -0.9406462E-01 ( -17.80%)
   displ. norm   :     0.4166262 α      lambda       -0.6850850E-01
   maximum displ.:     0.2545510 α      in ANC's #6, #26, #14, ...

........................................................................
.............................. CYCLE    5 ..............................
........................................................................
   1    -35.5023659 -0.355024E+02  0.623E-01    3.72       0.0  T
   2    -35.5026940 -0.328107E-03  0.486E-01    3.69       1.0  T
   3    -35.5027240 -0.299603E-04  0.237E-01    3.70       1.0  T
   4    -35.5033772 -0.653269E-03  0.608E-02    3.69       1.0  T
   5    -35.5033947 -0.174490E-04  0.289E-02    3.69       1.0  T
   6    -35.5033976 -0.288865E-05  0.608E-03    3.69       4.1  T
   7    -35.5033978 -0.289911E-06  0.290E-03    3.69       8.6  T
   8    -35.5033979 -0.319944E-07  0.130E-03    3.69      19.2  T
   9    -35.5033979 -0.646618E-08  0.423E-04    3.69      59.1  T
  10    -35.5033979 -0.150429E-09  0.127E-04    3.69     197.1  T
     SCC iter.                  ...        0 min,  0.006 sec
     gradient                   ...        0 min,  0.001 sec
 * total energy  :   -35.0585339 Eh     change       -0.4759151E-01 Eh
   gradient norm :     0.1428720 Eh/α   predicted    -0.4019998E-01 ( -15.53%)
   displ. norm   :     0.4015212 α      lambda       -0.2421649E-01
   maximum displ.:     0.3056471 α      in ANC's #6, #1, #14, ...

........................................................................
.............................. CYCLE    6 ..............................
........................................................................
   1    -35.4797171 -0.354797E+02  0.455E-01    3.63       0.0  T
   2    -35.4797409 -0.237113E-04  0.338E-01    3.62       1.0  T
   3    -35.4796190  0.121861E-03  0.190E-01    3.63       1.0  T
   4    -35.4801044 -0.485357E-03  0.344E-02    3.63       1.0  T
   5    -35.4801068 -0.239937E-05  0.154E-02    3.62       1.6  T
   6    -35.4801076 -0.819356E-06  0.388E-03    3.62       6.4  T
   7    -35.4801077 -0.117697E-06  0.182E-03    3.62      13.7  T
   8    -35.4801077 -0.995897E-08  0.117E-03    3.62      21.5  T
   9    -35.4801077 -0.727431E-08  0.233E-04    3.62     107.2  T
  10    -35.4801077 -0.150976E-09  0.111E-04    3.62     225.3  T
     SCC iter.                  ...        0 min,  0.006 sec
     gradient                   ...        0 min,  0.001 sec
 * total energy  :   -35.0755795 Eh     change       -0.1704560E-01 Eh
   gradient norm :     0.0908174 Eh/α   predicted    -0.1406034E-01 ( -17.51%)
   displ. norm   :     0.3687421 α      lambda       -0.1016181E-01
   maximum displ.:     0.2630209 α      in ANC's #6, #1, #14, ...

........................................................................
.............................. CYCLE    7 ..............................
........................................................................
   1    -35.4683508 -0.354684E+02  0.379E-01    3.60       0.0  T
   2    -35.4683573 -0.648509E-05  0.259E-01    3.61       1.0  T
   3    -35.4681775  0.179729E-03  0.165E-01    3.61       1.0  T
   4    -35.4685563 -0.378809E-03  0.302E-02    3.61       1.0  T
   5    -35.4685596 -0.325899E-05  0.110E-02    3.61       2.3  T
   6    -35.4685598 -0.230958E-06  0.562E-03    3.61       4.4  T
   7    -35.4685602 -0.340190E-06  0.196E-03    3.61      12.7  T
   8    -35.4685602 -0.397478E-08  0.846E-04    3.61      29.6  T
   9    -35.4685602 -0.382646E-08  0.311E-04    3.61      80.5  T
     SCC iter.                  ...        0 min,  0.005 sec
     gradient                   ...        0 min,  0.001 sec
 * total energy  :   -35.0827791 Eh     change       -0.7199615E-02 Eh
   gradient norm :     0.0650615 Eh/α   predicted    -0.5771765E-02 ( -19.83%)
   displ. norm   :     0.2979736 α      lambda       -0.4994881E-02
   maximum displ.:     0.1995671 α      in ANC's #1, #6, #2, ...

........................................................................
.............................. CYCLE    8 ..............................
........................................................................
   1    -35.4670730 -0.354671E+02  0.312E-01    3.60       0.0  T
   2    -35.4671165 -0.435831E-04  0.203E-01    3.62       1.0  T
   3    -35.4670355  0.809929E-04  0.130E-01    3.61       1.0  T
   4    -35.4672322 -0.196671E-03  0.374E-02    3.62       1.0  T
   5    -35.4672440 -0.117646E-04  0.127E-02    3.62       2.0  T
   6    -35.4672452 -0.125895E-05  0.556E-03    3.62       4.5  T
   7    -35.4672454 -0.181060E-06  0.221E-03    3.62      11.3  T
   8    -35.4672454 -0.191963E-07  0.112E-03    3.62      22.3  T
   9    -35.4672454 -0.247427E-08  0.359E-04    3.62      69.6  T
  10    -35.4672454 -0.107384E-09  0.189E-04    3.62     132.4  T
     SCC iter.                  ...        0 min,  0.006 sec
     gradient                   ...        0 min,  0.001 sec
 * total energy  :   -35.0862955 Eh     change       -0.3516398E-02 Eh
   gradient norm :     0.0439085 Eh/α   predicted    -0.2719202E-02 ( -22.67%)
   displ. norm   :     0.1878694 α      lambda       -0.2588283E-02
   maximum displ.:     0.1419892 α      in ANC's #1, #6, #26, ...

........................................................................
.............................. CYCLE    9 ..............................
........................................................................
   1    -35.4734468 -0.354734E+02  0.224E-01    3.61       0.0  T
   2    -35.4735042 -0.574421E-04  0.143E-01    3.63       1.0  T
   3    -35.4734998  0.446694E-05  0.874E-02    3.63       1.0  T
   4    -35.4735601 -0.603717E-04  0.350E-02    3.63       1.0  T
   5    -35.4735737 -0.135437E-04  0.103E-02    3.63       2.4  T
   6    -35.4735745 -0.829187E-06  0.458E-03    3.63       5.5  T
   7    -35.4735746 -0.137805E-06  0.178E-03    3.63      14.1  T
   8    -35.4735746 -0.103618E-07  0.852E-04    3.63      29.4  T
   9    -35.4735746 -0.130849E-08  0.249E-04    3.63     100.6  T
     SCC iter.                  ...        0 min,  0.005 sec
     gradient                   ...        0 min,  0.001 sec
 * total energy  :   -35.0880449 Eh     change       -0.1749417E-02 Eh
   gradient norm :     0.0248267 Eh/α   predicted    -0.1339818E-02 ( -23.41%)
   displ. norm   :     0.0984283 α      lambda       -0.1028591E-02
   maximum displ.:     0.0777907 α      in ANC's #1, #26, #11, ...

........................................................................
.............................. CYCLE   10 ..............................
........................................................................
   1    -35.4815420 -0.354815E+02  0.119E-01    3.63       0.0  T
   2    -35.4815631 -0.211082E-04  0.740E-02    3.64       1.0  T
   3    -35.4815613  0.173843E-05  0.447E-02    3.64       1.0  T
   4    -35.4815726 -0.112549E-04  0.189E-02    3.64       1.3  T
   5    -35.4815775 -0.490271E-05  0.493E-03    3.64       5.1  T
   6    -35.4815777 -0.164497E-06  0.237E-03    3.64      10.6  T
   7    -35.4815777 -0.445903E-07  0.851E-04    3.64      29.4  T
   8    -35.4815777 -0.212329E-08  0.408E-04    3.64      61.3  T
     SCC iter.                  ...        0 min,  0.005 sec
     gradient                   ...        0 min,  0.001 sec
 * total energy  :   -35.0887186 Eh     change       -0.6736401E-03 Eh
   gradient norm :     0.0156644 Eh/α   predicted    -0.5192779E-03 ( -22.91%)
   displ. norm   :     0.0794736 α      lambda       -0.3576561E-03
   maximum displ.:     0.0537660 α      in ANC's #1, #6, #11, ...

........................................................................
.............................. CYCLE   11 ..............................
........................................................................
   1    -35.4859315 -0.354859E+02  0.755E-02    3.64       0.0  T
   2    -35.4859329 -0.137226E-05  0.439E-02    3.64       1.0  T
   3    -35.4859318  0.110130E-05  0.120E-02    3.64       2.1  T
   4    -35.4859331 -0.132175E-05  0.411E-03    3.64       6.1  T
   5    -35.4859332 -0.110495E-06  0.210E-03    3.64      11.9  T
   6    -35.4859333 -0.551852E-07  0.442E-04    3.64      56.5  T
   7    -35.4859333 -0.662133E-09  0.217E-04    3.64     115.2  T
     SCC iter.                  ...        0 min,  0.004 sec
     gradient                   ...        0 min,  0.001 sec
 * total energy  :   -35.0889664 Eh     change       -0.2478513E-03 Eh
   gradient norm :     0.0125818 Eh/α   predicted    -0.1799580E-03 ( -27.39%)
   displ. norm   :     0.0838468 α      lambda       -0.2095784E-03
   maximum displ.:     0.0622709 α      in ANC's #1, #6, #11, ...

........................................................................
.............................. CYCLE   12 ..............................
........................................................................
   1    -35.4875470 -0.354875E+02  0.709E-02    3.64       0.0  T
   2    -35.4875481 -0.109683E-05  0.417E-02    3.64       1.0  T
   3    -35.4875432  0.481809E-05  0.189E-02    3.64       1.3  T
   4    -35.4875488 -0.555566E-05  0.385E-03    3.64       6.5  T
   5    -35.4875489 -0.579132E-07  0.244E-03    3.64      10.3  T
   6    -35.4875489 -0.764766E-07  0.574E-04    3.64      43.5  T
   7    -35.4875489 -0.211533E-08  0.249E-04    3.64     100.5  T
     SCC iter.                  ...        0 min,  0.004 sec
     gradient                   ...        0 min,  0.001 sec
 * total energy  :   -35.0891155 Eh     change       -0.1490368E-03 Eh
   gradient norm :     0.0094155 Eh/α   predicted    -0.1055265E-03 ( -29.19%)
   displ. norm   :     0.0945833 α      lambda       -0.1570468E-03
   maximum displ.:     0.0784688 α      in ANC's #1, #11, #2, ...

........................................................................
.............................. CYCLE   13 ..............................
........................................................................
   1    -35.4872561 -0.354873E+02  0.682E-02    3.63       0.0  T
   2    -35.4872589 -0.283976E-05  0.404E-02    3.63       1.0  T
   3    -35.4872548  0.417763E-05  0.219E-02    3.63       1.1  T
   4    -35.4872603 -0.557408E-05  0.550E-03    3.63       4.5  T
   5    -35.4872606 -0.304902E-06  0.253E-03    3.63       9.9  T
   6    -35.4872607 -0.623774E-07  0.994E-04    3.63      25.1  T
   7    -35.4872607 -0.100380E-07  0.293E-04    3.63      85.5  T
     SCC iter.                  ...        0 min,  0.004 sec
     gradient                   ...        0 min,  0.001 sec
 * total energy  :   -35.0892281 Eh     change       -0.1126635E-03 Eh
   gradient norm :     0.0066261 Eh/α   predicted    -0.7922727E-04 ( -29.68%)
   displ. norm   :     0.1012570 α      lambda       -0.1242577E-03
   maximum displ.:     0.0852924 α      in ANC's #1, #3, #5, ...

........................................................................
.............................. CYCLE   14 ..............................
........................................................................
   1    -35.4859754 -0.354860E+02  0.659E-02    3.62       0.0  T
   2    -35.4859785 -0.313250E-05  0.385E-02    3.62       1.0  T
   3    -35.4859753  0.319877E-05  0.209E-02    3.62       1.2  T
   4    -35.4859799 -0.450263E-05  0.610E-03    3.62       4.1  T
   5    -35.4859802 -0.371227E-06  0.284E-03    3.62       8.8  T
   6    -35.4859803 -0.662638E-07  0.107E-03    3.62      23.3  T
   7    -35.4859803 -0.128899E-07  0.314E-04    3.62      79.7  T
   8    -35.4859803 -0.296033E-09  0.117E-04    3.62     213.4  T
     SCC iter.                  ...        0 min,  0.005 sec
     gradient                   ...        0 min,  0.002 sec
 * total energy  :   -35.0893151 Eh     change       -0.8698752E-04 Eh
   gradient norm :     0.0057882 Eh/α   predicted    -0.6276453E-04 ( -27.85%)
   displ. norm   :     0.0826025 α      lambda       -0.8283256E-04
   maximum displ.:     0.0645504 α      in ANC's #1, #3, #5, ...

........................................................................
.............................. CYCLE   15 ..............................
........................................................................
   1    -35.4848909 -0.354849E+02  0.548E-02    3.61       0.0  T
   2    -35.4848922 -0.132047E-05  0.311E-02    3.61       1.0  T
   3    -35.4848898  0.242141E-05  0.159E-02    3.61       1.6  T
   4    -35.4848927 -0.294964E-05  0.490E-03    3.61       5.1  T
   5    -35.4848929 -0.207863E-06  0.245E-03    3.61      10.2  T
   6    -35.4848930 -0.499367E-07  0.746E-04    3.61      33.5  T
   7    -35.4848930 -0.588813E-08  0.291E-04    3.61      86.1  T
     SCC iter.                  ...        0 min,  0.004 sec
     gradient                   ...        0 min,  0.001 sec
 * total energy  :   -35.0893730 Eh     change       -0.5788308E-04 Eh
   gradient norm :     0.0059194 Eh/α   predicted    -0.4169766E-04 ( -27.96%)
   displ. norm   :     0.0601737 α      lambda       -0.5525980E-04
   maximum displ.:     0.0389239 α      in ANC's #1, #3, #5, ...

........................................................................
.............................. CYCLE   16 ..............................
........................................................................
   1    -35.4845446 -0.354845E+02  0.441E-02    3.60       0.0  T
   2    -35.4845449 -0.254483E-06  0.247E-02    3.60       1.0  T
   3    -35.4845436  0.132640E-05  0.102E-02    3.60       2.4  T
   4    -35.4845450 -0.146427E-05  0.310E-03    3.60       8.1  T
   5    -35.4845451 -0.554545E-07  0.137E-03    3.60      18.2  T
   6    -35.4845451 -0.149425E-07  0.465E-04    3.60      53.8  T
   7    -35.4845451 -0.177422E-08  0.229E-04    3.60     109.2  T
     SCC iter.                  ...        0 min,  0.004 sec
     gradient                   ...        0 min,  0.001 sec
 * total energy  :   -35.0894118 Eh     change       -0.3875617E-04 Eh
   gradient norm :     0.0057051 Eh/α   predicted    -0.2772827E-04 ( -28.45%)
   displ. norm   :     0.0479410 α      lambda       -0.3804155E-04
   maximum displ.:     0.0299406 α      in ANC's #3, #1, #2, ...

........................................................................
.............................. CYCLE   17 ..............................
........................................................................
   1    -35.4847953 -0.354848E+02  0.362E-02    3.59       0.0  T
   2    -35.4847955 -0.236228E-06  0.205E-02    3.59       1.2  T
   3    -35.4847952  0.302742E-06  0.555E-03    3.59       4.5  T
   4    -35.4847955 -0.309751E-06  0.244E-03    3.59      10.3  T
   5    -35.4847956 -0.554932E-07  0.114E-03    3.59      21.9  T
   6    -35.4847956 -0.856475E-08  0.329E-04    3.59      76.0  T
   7    -35.4847956 -0.604913E-09  0.170E-04    3.59     147.3  T
     SCC iter.                  ...        0 min,  0.004 sec
     gradient                   ...        0 min,  0.001 sec
 * total energy  :   -35.0894393 Eh     change       -0.2750744E-04 Eh
   gradient norm :     0.0054544 Eh/α   predicted    -0.1906428E-04 ( -30.69%)
   displ. norm   :     0.0552419 α      lambda       -0.3490217E-04
   maximum displ.:     0.0351053 α      in ANC's #3, #1, #2, ...

........................................................................
.............................. CYCLE   18 ..............................
........................................................................
   1    -35.4852871 -0.354853E+02  0.398E-02    3.58       0.0  T
   2    -35.4852876 -0.425020E-06  0.225E-02    3.58       1.1  T
   3    -35.4852874  0.190924E-06  0.588E-03    3.58       4.3  T
   4    -35.4852876 -0.250854E-06  0.208E-03    3.58      12.0  T
   5    -35.4852876 -0.143430E-07  0.112E-03    3.58      22.3  T
   6    -35.4852876 -0.128466E-07  0.420E-04    3.58      59.6  T
   7    -35.4852876 -0.196053E-08  0.164E-04    3.58     152.6  T
     SCC iter.                  ...        0 min,  0.004 sec
     gradient                   ...        0 min,  0.001 sec
 * total energy  :   -35.0894655 Eh     change       -0.2623636E-04 Eh
   gradient norm :     0.0054800 Eh/α   predicted    -0.1750507E-04 ( -33.28%)
   displ. norm   :     0.0833803 α      lambda       -0.4390705E-04
   maximum displ.:     0.0500853 α      in ANC's #3, #1, #2, ...

........................................................................
.............................. CYCLE   19 ..............................
........................................................................
   1    -35.4857747 -0.354858E+02  0.590E-02    3.56       0.0  T
   2    -35.4857754 -0.660235E-06  0.334E-02    3.56       1.0  T
   3    -35.4857741  0.128513E-05  0.114E-02    3.56       2.2  T
   4    -35.4857754 -0.133861E-05  0.429E-03    3.56       5.8  T
   5    -35.4857756 -0.170579E-06  0.166E-03    3.56      15.1  T
   6    -35.4857756 -0.193657E-07  0.497E-04    3.56      50.3  T
   7    -35.4857756 -0.239882E-08  0.210E-04    3.56     119.0  T
     SCC iter.                  ...        0 min,  0.004 sec
     gradient                   ...        0 min,  0.001 sec
 * total energy  :   -35.0894986 Eh     change       -0.3310389E-04 Eh
   gradient norm :     0.0056871 Eh/α   predicted    -0.2210516E-04 ( -33.22%)
   displ. norm   :     0.1170536 α      lambda       -0.5510206E-04
   maximum displ.:     0.0737987 α      in ANC's #1, #3, #2, ...

........................................................................
.............................. CYCLE   20 ..............................
........................................................................
   1    -35.4859240 -0.354859E+02  0.830E-02    3.54       0.0  T
   2    -35.4859247 -0.704816E-06  0.470E-02    3.54       1.0  T
   3    -35.4859202  0.450009E-05  0.190E-02    3.54       1.3  T
   4    -35.4859251 -0.492116E-05  0.523E-03    3.54       4.8  T
   5    -35.4859253 -0.152234E-06  0.189E-03    3.54      13.2  T
   6    -35.4859253 -0.248075E-07  0.575E-04    3.54      43.5  T
   7    -35.4859253 -0.275072E-08  0.277E-04    3.54      90.4  T
     SCC iter.                  ...        0 min,  0.004 sec
     gradient                   ...        0 min,  0.001 sec
 * total energy  :   -35.0895395 Eh     change       -0.4085328E-04 Eh
   gradient norm :     0.0058512 Eh/α   predicted    -0.2792793E-04 ( -31.64%)
   displ. norm   :     0.1271951 α      lambda       -0.5846727E-04
   maximum displ.:     0.0820742 α      in ANC's #1, #3, #12, ...
 * RMSD in coord.:     0.6958681 α      energy gain  -0.1677780E+01 Eh

generating ANC from model Hessian ...
Using Lindh-Hessian (1995)
 Shifting diagonal of input Hessian by   7.263411470595061E-003
 Lowest  eigenvalues of input Hessian
    0.000000    0.000000    0.000000    0.000000    0.000000    0.000000
    0.010000    0.011126    0.011622    0.025549    0.026386    0.029784
    0.033698    0.043570    0.053209    0.056894    0.098472    0.098634
 Highest eigenvalues
    1.773661    1.784430    1.852987    2.003721    2.044295    2.061400
 

........................................................................
.............................. CYCLE   21 ..............................
........................................................................
   1    -35.4856307 -0.354856E+02  0.910E-02    3.52       0.0  T
   2    -35.4856311 -0.474126E-06  0.515E-02    3.52       1.0  T
   3    -35.4856248  0.632878E-05  0.217E-02    3.52       1.2  T
   4    -35.4856318 -0.701897E-05  0.529E-03    3.52       4.7  T
   5    -35.4856319 -0.607251E-07  0.113E-03    3.52      22.1  T
   6    -35.4856319 -0.109853E-07  0.490E-04    3.52      51.0  T
   7    -35.4856319 -0.725677E-09  0.292E-04    3.52      85.7  T
     SCC iter.                  ...        0 min,  0.004 sec
     gradient                   ...        0 min,  0.001 sec
 * total energy  :   -35.0895816 Eh     change       -0.4210386E-04 Eh
   gradient norm :     0.0058928 Eh/α   predicted     0.0000000E+00 (-100.00%)
   displ. norm   :     0.0719372 α      lambda       -0.1702969E-03
   maximum displ.:     0.0447226 α      in ANC's #7, #1, #3, ...

........................................................................
.............................. CYCLE   22 ..............................
........................................................................
   1    -35.4857429 -0.354857E+02  0.508E-02    3.50       0.0  T
   2    -35.4857435 -0.619586E-06  0.255E-02    3.50       1.0  T
   3    -35.4857405  0.303216E-05  0.164E-02    3.50       1.5  T
   4    -35.4857444 -0.387144E-05  0.414E-03    3.50       6.0  T
   5    -35.4857444 -0.399118E-07  0.212E-03    3.50      11.8  T
   6    -35.4857444 -0.358368E-07  0.514E-04    3.50      48.6  T
   7    -35.4857444 -0.256317E-08  0.211E-04    3.50     118.3  T
     SCC iter.                  ...        0 min,  0.004 sec
     gradient                   ...        0 min,  0.001 sec
 * total energy  :   -35.0896933 Eh     change       -0.1117519E-03 Eh
   gradient norm :     0.0026065 Eh/α   predicted    -0.8558989E-04 ( -23.41%)
   displ. norm   :     0.1200944 α      lambda       -0.1060274E-03
   maximum displ.:     0.0928255 α      in ANC's #1, #3, #7, ...

........................................................................
.............................. CYCLE   23 ..............................
........................................................................
   1    -35.4856571 -0.354857E+02  0.805E-02    3.48       0.0  T
   2    -35.4856582 -0.108475E-05  0.445E-02    3.48       1.0  T
   3    -35.4856501  0.812019E-05  0.256E-02    3.48       1.0  T
   4    -35.4856596 -0.950121E-05  0.635E-03    3.48       3.9  T
   5    -35.4856597 -0.121612E-06  0.298E-03    3.48       8.4  T
   6    -35.4856598 -0.973580E-07  0.741E-04    3.48      33.8  T
   7    -35.4856598 -0.434618E-08  0.344E-04    3.48      72.6  T
     SCC iter.                  ...        0 min,  0.004 sec
     gradient                   ...        0 min,  0.001 sec
 * total energy  :   -35.0897800 Eh     change       -0.8671310E-04 Eh
   gradient norm :     0.0020494 Eh/α   predicted    -0.5377852E-04 ( -37.98%)
   displ. norm   :     0.1744686 α      lambda       -0.1226333E-03
   maximum displ.:     0.1334718 α      in ANC's #1, #3, #7, ...

........................................................................
.............................. CYCLE   24 ..............................
........................................................................
   1    -35.4852351 -0.354852E+02  0.116E-01    3.44       0.0  T
   2    -35.4852369 -0.182516E-05  0.647E-02    3.44       1.0  T
   3    -35.4852223  0.146645E-04  0.338E-02    3.44       1.0  T
   4    -35.4852390 -0.167682E-04  0.852E-03    3.44       2.9  T
   5    -35.4852392 -0.210302E-06  0.392E-03    3.44       6.4  T
   6    -35.4852394 -0.184983E-06  0.969E-04    3.44      25.8  T
   7    -35.4852394 -0.691433E-08  0.457E-04    3.44      54.7  T
     SCC iter.                  ...        0 min,  0.004 sec
     gradient                   ...        0 min,  0.002 sec
 * total energy  :   -35.0898957 Eh     change       -0.1156621E-03 Eh
   gradient norm :     0.0045729 Eh/α   predicted    -0.6318065E-04 ( -45.37%)
   displ. norm   :     0.2530624 α      lambda       -0.1891497E-03
   maximum displ.:     0.1852960 α      in ANC's #1, #3, #2, ...

........................................................................
.............................. CYCLE   25 ..............................
........................................................................
   1    -35.4841016 -0.354841E+02  0.171E-01    3.38       0.0  T
   2    -35.4841054 -0.374838E-05  0.957E-02    3.38       1.0  T
   3    -35.4840793  0.261132E-04  0.450E-02    3.38       1.0  T
   4    -35.4841087 -0.294367E-04  0.122E-02    3.38       2.1  T
   5    -35.4841092 -0.539240E-06  0.535E-03    3.38       4.7  T
   6    -35.4841096 -0.336309E-06  0.147E-03    3.38      17.0  T
   7    -35.4841096 -0.172823E-07  0.630E-04    3.38      39.7  T
   8    -35.4841096 -0.119964E-08  0.281E-04    3.38      89.0  T
     SCC iter.                  ...        0 min,  0.009 sec
     gradient                   ...        0 min,  0.001 sec
 * total energy  :   -35.0900803 Eh     change       -0.1845829E-03 Eh
   gradient norm :     0.0074030 Eh/α   predicted    -0.1006315E-03 ( -45.48%)
   displ. norm   :     0.3893898 α      lambda       -0.3177600E-03
   maximum displ.:     0.2800160 α      in ANC's #1, #3, #2, ...

........................................................................
.............................. CYCLE   26 ..............................
........................................................................
   1    -35.4809750 -0.354810E+02  0.265E-01    3.27       0.0  T
   2    -35.4809847 -0.969266E-05  0.149E-01    3.27       1.0  T
   3    -35.4809307  0.539936E-04  0.654E-02    3.27       1.0  T
   4    -35.4809910 -0.602635E-04  0.188E-02    3.27       1.3  T
   5    -35.4809928 -0.176568E-05  0.794E-03    3.27       3.1  T
   6    -35.4809934 -0.663251E-06  0.251E-03    3.27       9.9  T
   7    -35.4809935 -0.563776E-07  0.963E-04    3.27      26.0  T
   8    -35.4809935 -0.269200E-08  0.465E-04    3.27      53.7  T
     SCC iter.                  ...        0 min,  0.005 sec
     gradient                   ...        0 min,  0.001 sec
 * total energy  :   -35.0903554 Eh     change       -0.2751010E-03 Eh
   gradient norm :     0.0121523 Eh/α   predicted    -0.1829786E-03 ( -33.49%)
   displ. norm   :     0.5159026 α      lambda       -0.4027706E-03
   maximum displ.:     0.3757974 α      in ANC's #1, #3, #2, ...

........................................................................
.............................. CYCLE   27 ..............................
........................................................................
   1    -35.4752744 -0.354753E+02  0.349E-01    3.13       0.0  T
   2    -35.4752930 -0.185934E-04  0.197E-01    3.13       1.0  T
   3    -35.4752056  0.873302E-04  0.838E-02    3.12       1.0  T
   4    -35.4753025 -0.968220E-04  0.249E-02    3.13       1.0  T
   5    -35.4753063 -0.381521E-05  0.104E-02    3.12       2.4  T
   6    -35.4753073 -0.103041E-05  0.359E-03    3.12       7.0  T
   7    -35.4753074 -0.118490E-06  0.130E-03    3.12      19.2  T
   8    -35.4753074 -0.509036E-08  0.647E-04    3.12      38.7  T
   9    -35.4753074 -0.898538E-09  0.201E-04    3.12     124.7  T
     SCC iter.                  ...        0 min,  0.005 sec
     gradient                   ...        0 min,  0.001 sec
 * total energy  :   -35.0905635 Eh     change       -0.2081660E-03 Eh
   gradient norm :     0.0206303 Eh/α   predicted    -0.2550028E-03 (  22.50%)
   displ. norm   :     0.0775448 α      lambda       -0.3639281E-03
   maximum displ.:     0.0626347 α      in ANC's #1, #3, #26, ...

........................................................................
.............................. CYCLE   28 ..............................
........................................................................
   1    -35.4793191 -0.354793E+02  0.632E-02    3.13       0.0  T
   2    -35.4793196 -0.421522E-06  0.356E-02    3.13       1.0  T
   3    -35.4793194  0.164027E-06  0.686E-03    3.13       3.6  T
   4    -35.4793196 -0.206404E-06  0.350E-03    3.13       7.1  T
   5    -35.4793197 -0.564480E-07  0.131E-03    3.13      19.1  T
   6    -35.4793197 -0.228366E-07  0.464E-04    3.13      53.9  T
   7    -35.4793197 -0.563197E-09  0.286E-04    3.13      87.4  T
     SCC iter.                  ...        0 min,  0.004 sec
     gradient                   ...        0 min,  0.001 sec
 * total energy  :   -35.0908704 Eh     change       -0.3068949E-03 Eh
   gradient norm :     0.0159253 Eh/α   predicted    -0.1830604E-03 ( -40.35%)
   displ. norm   :     0.4307787 α      lambda       -0.9620468E-03
   maximum displ.:     0.3237911 α      in ANC's #1, #3, #26, ...

........................................................................
.............................. CYCLE   29 ..............................
........................................................................
   1    -35.4856257 -0.354856E+02  0.287E-01    3.06       0.0  T
   2    -35.4856331 -0.731992E-05  0.160E-01    3.06       1.0  T
   3    -35.4856330  0.181644E-07  0.261E-02    3.06       1.0  T
   4    -35.4856333 -0.268304E-06  0.154E-02    3.06       1.6  T
   5    -35.4856348 -0.153942E-05  0.444E-03    3.06       5.6  T
   6    -35.4856351 -0.232976E-06  0.147E-03    3.06      17.0  T
   7    -35.4856351 -0.795641E-08  0.884E-04    3.06      28.3  T
   8    -35.4856351 -0.232772E-08  0.438E-04    3.06      57.1  T
     SCC iter.                  ...        0 min,  0.005 sec
     gradient                   ...        0 min,  0.001 sec
 * total energy  :   -35.0916256 Eh     change       -0.7551879E-03 Eh
   gradient norm :     0.0098557 Eh/α   predicted    -0.5702867E-03 ( -24.48%)
   displ. norm   :     0.6771390 α      lambda       -0.9511410E-03
   maximum displ.:     0.4926111 α      in ANC's #1, #3, #26, ...

........................................................................
.............................. CYCLE   30 ..............................
........................................................................
   1    -35.4815918 -0.354816E+02  0.422E-01    2.91       0.0  T
   2    -35.4816165 -0.247941E-04  0.236E-01    2.91       1.0  T
   3    -35.4815989  0.176505E-04  0.518E-02    2.91       1.0  T
   4    -35.4816176 -0.187150E-04  0.270E-02    2.91       1.0  T
   5    -35.4816228 -0.513951E-05  0.103E-02    2.91       2.4  T
   6    -35.4816237 -0.996120E-06  0.413E-03    2.91       6.0  T
   7    -35.4816240 -0.204817E-06  0.146E-03    2.91      17.2  T
   8    -35.4816240 -0.199172E-09  0.696E-04    2.91      35.9  T
   9    -35.4816240 -0.297995E-08  0.168E-04    2.91     148.9  T
     SCC iter.                  ...        0 min,  0.005 sec
     gradient                   ...        0 min,  0.001 sec
 * total energy  :   -35.0923667 Eh     change       -0.7410637E-03 Eh
   gradient norm :     0.0138755 Eh/α   predicted    -0.6936525E-03 (  -6.40%)
   displ. norm   :     0.4453320 α      lambda       -0.1101645E-02
   maximum displ.:     0.2818444 α      in ANC's #1, #3, #26, ...

........................................................................
.............................. CYCLE   31 ..............................
........................................................................
   1    -35.4882340 -0.354882E+02  0.267E-01    2.89       0.0  T
   2    -35.4882431 -0.912741E-05  0.146E-01    2.89       1.0  T
   3    -35.4882247  0.184376E-04  0.473E-02    2.89       1.0  T
   4    -35.4882462 -0.215012E-04  0.204E-02    2.89       1.2  T
   5    -35.4882477 -0.147229E-05  0.621E-03    2.89       4.0  T
   6    -35.4882481 -0.462113E-06  0.238E-03    2.89      10.5  T
   7    -35.4882482 -0.271571E-07  0.138E-03    2.89      18.1  T
   8    -35.4882482 -0.516487E-08  0.485E-04    2.89      51.5  T
   9    -35.4882482 -0.124847E-08  0.116E-04    2.89     215.4  T
     SCC iter.                  ...        0 min,  0.005 sec
     gradient                   ...        0 min,  0.001 sec
 * total energy  :   -35.0929564 Eh     change       -0.5897248E-03 Eh
   gradient norm :     0.0113882 Eh/α   predicted    -0.6600585E-03 (  11.93%)
   displ. norm   :     0.5397241 α      lambda       -0.6568735E-03
   maximum displ.:     0.3907146 α      in ANC's #1, #3, #26, ...

........................................................................
.............................. CYCLE   32 ..............................
........................................................................
   1    -35.4776262 -0.354776E+02  0.336E-01    2.77       0.0  T
   2    -35.4776490 -0.227979E-04  0.190E-01    2.76       1.0  T
   3    -35.4776285  0.205819E-04  0.499E-02    2.76       1.0  T
   4    -35.4776494 -0.209127E-04  0.239E-02    2.76       1.0  T
   5    -35.4776547 -0.534717E-05  0.889E-03    2.76       2.8  T
   6    -35.4776552 -0.515167E-06  0.367E-03    2.76       6.8  T
   7    -35.4776554 -0.150153E-06  0.120E-03    2.76      20.8  T
   8    -35.4776554 -0.397634E-09  0.594E-04    2.76      42.1  T
   9    -35.4776554 -0.202872E-08  0.855E-05    2.76     292.4  T
     SCC iter.                  ...        0 min,  0.005 sec
     gradient                   ...        0 min,  0.001 sec
 * total energy  :   -35.0932145 Eh     change       -0.2581231E-03 Eh
   gradient norm :     0.0202482 Eh/α   predicted    -0.4241038E-03 (  64.30%)
   displ. norm   :     0.0792900 α      lambda       -0.8270366E-03
   maximum displ.:     0.0469435 α      in ANC's #26, #7, #14, ...

........................................................................
.............................. CYCLE   33 ..............................
........................................................................
   1    -35.4841382 -0.354841E+02  0.120E-01    2.80       0.0  T
   2    -35.4841453 -0.712434E-05  0.699E-02    2.81       1.0  T
   3    -35.4841426  0.270279E-05  0.233E-02    2.81       1.1  T
   4    -35.4841464 -0.379247E-05  0.759E-03    2.81       3.3  T
   5    -35.4841465 -0.162060E-06  0.432E-03    2.81       5.8  T
   6    -35.4841468 -0.213779E-06  0.148E-03    2.81      16.9  T
   7    -35.4841468 -0.679529E-08  0.832E-04    2.81      30.0  T
   8    -35.4841468 -0.122959E-08  0.403E-04    2.81      62.0  T
     SCC iter.                  ...        0 min,  0.005 sec
     gradient                   ...        0 min,  0.001 sec
 * total energy  :   -35.0935994 Eh     change       -0.3848838E-03 Eh
   gradient norm :     0.0142836 Eh/α   predicted    -0.4161162E-03 (   8.11%)
   displ. norm   :     0.2797657 α      lambda       -0.5898998E-03
   maximum displ.:     0.1931005 α      in ANC's #3, #1, #26, ...

........................................................................
.............................. CYCLE   34 ..............................
........................................................................
   1    -35.4861921 -0.354862E+02  0.158E-01    2.79       0.0  T
   2    -35.4861995 -0.745590E-05  0.903E-02    2.79       1.0  T
   3    -35.4861727  0.268274E-04  0.514E-02    2.79       1.0  T
   4    -35.4862059 -0.331701E-04  0.123E-02    2.79       2.0  T
   5    -35.4862065 -0.649981E-06  0.625E-03    2.79       4.0  T
   6    -35.4862068 -0.317228E-06  0.199E-03    2.79      12.5  T
   7    -35.4862069 -0.189278E-07  0.106E-03    2.79      23.7  T
   8    -35.4862069 -0.424103E-08  0.361E-04    2.79      69.2  T
   9    -35.4862069 -0.130157E-09  0.102E-04    2.79     246.0  T
     SCC iter.                  ...        0 min,  0.005 sec
     gradient                   ...        0 min,  0.001 sec
 * total energy  :   -35.0940065 Eh     change       -0.4070510E-03 Eh
   gradient norm :     0.0085698 Eh/α   predicted    -0.3180391E-03 ( -21.87%)
   displ. norm   :     0.5091028 α      lambda       -0.7299741E-03
   maximum displ.:     0.3239316 α      in ANC's #1, #3, #26, ...

........................................................................
.............................. CYCLE   35 ..............................
........................................................................
   1    -35.4845327 -0.354845E+02  0.308E-01    2.71       0.0  T
   2    -35.4845456 -0.129152E-04  0.175E-01    2.71       1.0  T
   3    -35.4844991  0.465082E-04  0.630E-02    2.71       1.0  T
   4    -35.4845526 -0.534954E-04  0.208E-02    2.71       1.2  T
   5    -35.4845538 -0.125650E-05  0.919E-03    2.71       2.7  T
   6    -35.4845546 -0.771530E-06  0.226E-03    2.71      11.1  T
   7    -35.4845546 -0.327600E-07  0.128E-03    2.71      19.5  T
   8    -35.4845546 -0.255537E-08  0.480E-04    2.71      52.0  T
   9    -35.4845546 -0.100215E-08  0.129E-04    2.71     193.6  T
     SCC iter.                  ...        0 min,  0.005 sec
     gradient                   ...        0 min,  0.001 sec
 * total energy  :   -35.0943896 Eh     change       -0.3831658E-03 Eh
   gradient norm :     0.0159831 Eh/α   predicted    -0.4595910E-03 (  19.95%)
   displ. norm   :     0.2280908 α      lambda       -0.4197662E-03
   maximum displ.:     0.1645156 α      in ANC's #1, #3, #26, ...

........................................................................
.............................. CYCLE   36 ..............................
........................................................................
   1    -35.4861684 -0.354862E+02  0.122E-01    2.71       0.0  T
   2    -35.4861763 -0.792594E-05  0.703E-02    2.71       1.0  T
   3    -35.4861649  0.114452E-04  0.396E-02    2.71       1.0  T
   4    -35.4861815 -0.166523E-04  0.103E-02    2.71       2.4  T
   5    -35.4861821 -0.587359E-06  0.524E-03    2.71       4.8  T
   6    -35.4861823 -0.238799E-06  0.174E-03    2.71      14.4  T
   7    -35.4861824 -0.225246E-07  0.694E-04    2.71      36.0  T
   8    -35.4861824 -0.810445E-09  0.261E-04    2.71      95.8  T
     SCC iter.                  ...        0 min,  0.005 sec
     gradient                   ...        0 min,  0.001 sec
 * total energy  :   -35.0946927 Eh     change       -0.3030282E-03 Eh
   gradient norm :     0.0117315 Eh/α   predicted    -0.2208031E-03 ( -27.13%)
   displ. norm   :     0.2663152 α      lambda       -0.7431158E-03
   maximum displ.:     0.1684315 α      in ANC's #1, #26, #3, ...

........................................................................
.............................. CYCLE   37 ..............................
........................................................................
   1    -35.4935000 -0.354935E+02  0.197E-01    2.73       0.0  T
   2    -35.4935125 -0.124131E-04  0.110E-01    2.73       1.0  T
   3    -35.4935079  0.453134E-05  0.302E-02    2.73       1.0  T
   4    -35.4935148 -0.690221E-05  0.123E-02    2.73       2.0  T
   5    -35.4935150 -0.195661E-06  0.585E-03    2.73       4.3  T
   6    -35.4935154 -0.384503E-06  0.160E-03    2.73      15.6  T
   7    -35.4935154 -0.584798E-08  0.854E-04    2.73      29.3  T
   8    -35.4935154 -0.164024E-08  0.427E-04    2.73      58.6  T
     SCC iter.                  ...        0 min,  0.005 sec
     gradient                   ...        0 min,  0.001 sec
 * total energy  :   -35.0949542 Eh     change       -0.2615118E-03 Eh
   gradient norm :     0.0097845 Eh/α   predicted    -0.3979115E-03 (  52.16%)
   displ. norm   :     0.6166148 α      lambda       -0.7752462E-03
   maximum displ.:     0.4109277 α      in ANC's #1, #3, #26, ...

........................................................................
.............................. CYCLE   38 ..............................
........................................................................
   1    -35.4785653 -0.354786E+02  0.372E-01    2.62       0.0  T
   2    -35.4785979 -0.326866E-04  0.209E-01    2.62       1.0  T
   3    -35.4785566  0.413502E-04  0.724E-02    2.61       1.0  T
   4    -35.4786049 -0.483288E-04  0.260E-02    2.62       1.0  T
   5    -35.4786093 -0.437102E-05  0.116E-02    2.61       2.1  T
   6    -35.4786107 -0.136883E-05  0.346E-03    2.61       7.2  T
   7    -35.4786107 -0.882826E-07  0.153E-03    2.61      16.3  T
   8    -35.4786108 -0.640651E-08  0.779E-04    2.61      32.1  T
   9    -35.4786108 -0.241766E-08  0.168E-04    2.61     148.4  T
     SCC iter.                  ...        0 min,  0.005 sec
     gradient                   ...        0 min,  0.002 sec
 * total energy  :   -35.0951404 Eh     change       -0.1862678E-03 Eh
   gradient norm :     0.0183667 Eh/α   predicted    -0.5350099E-03 ( 187.23%)
   displ. norm   :     0.1229110 α      lambda       -0.5642060E-03
   maximum displ.:     0.0890348 α      in ANC's #1, #3, #26, ...

........................................................................
.............................. CYCLE   39 ..............................
........................................................................
   1    -35.4882401 -0.354882E+02  0.110E-01    2.66       0.0  T
   2    -35.4882519 -0.117089E-04  0.599E-02    2.66       1.0  T
   3    -35.4882489  0.299634E-05  0.286E-02    2.66       1.0  T
   4    -35.4882529 -0.405946E-05  0.133E-02    2.66       1.9  T
   5    -35.4882547 -0.175976E-05  0.419E-03    2.66       6.0  T
   6    -35.4882548 -0.771621E-07  0.215E-03    2.66      11.6  T
   7    -35.4882548 -0.403919E-07  0.684E-04    2.66      36.6  T
   8    -35.4882548 -0.551154E-09  0.361E-04    2.66      69.2  T
     SCC iter.                  ...        0 min,  0.005 sec
     gradient                   ...        0 min,  0.001 sec
 * total energy  :   -35.0954025 Eh     change       -0.2620660E-03 Eh
   gradient norm :     0.0070205 Eh/α   predicted    -0.2863650E-03 (   9.27%)
   displ. norm   :     0.1700582 α      lambda       -0.2318076E-03
   maximum displ.:     0.1130345 α      in ANC's #1, #3, #26, ...

........................................................................
.............................. CYCLE   40 ..............................
........................................................................
   1    -35.4901462 -0.354901E+02  0.111E-01    2.67       0.0  T
   2    -35.4901543 -0.811811E-05  0.661E-02    2.67       1.0  T
   3    -35.4901448  0.946878E-05  0.389E-02    2.67       1.0  T
   4    -35.4901607 -0.158534E-04  0.852E-03    2.67       2.9  T
   5    -35.4901609 -0.257128E-06  0.480E-03    2.67       5.2  T
   6    -35.4901611 -0.189268E-06  0.140E-03    2.67      17.9  T
   7    -35.4901612 -0.111348E-07  0.621E-04    2.67      40.3  T
   8    -35.4901612 -0.151061E-08  0.301E-04    2.67      83.0  T
     SCC iter.                  ...        0 min,  0.005 sec
     gradient                   ...        0 min,  0.001 sec
 * total energy  :   -35.0955133 Eh     change       -0.1107461E-03 Eh
   gradient norm :     0.0090203 Eh/α   predicted    -0.1192544E-03 (   7.68%)
   displ. norm   :     0.3634195 α      lambda       -0.3414444E-03
   maximum displ.:     0.2310222 α      in ANC's #1, #3, #26, ...

........................................................................
.............................. CYCLE   41 ..............................
........................................................................
   1    -35.4889638 -0.354890E+02  0.214E-01    2.65       0.0  T
   2    -35.4889809 -0.170847E-04  0.125E-01    2.65       1.0  T
   3    -35.4889394  0.415325E-04  0.697E-02    2.65       1.0  T
   4    -35.4889950 -0.556063E-04  0.143E-02    2.65       1.7  T
   5    -35.4889956 -0.634240E-06  0.777E-03    2.65       3.2  T
   6    -35.4889962 -0.537617E-06  0.217E-03    2.65      11.5  T
   7    -35.4889962 -0.333418E-07  0.974E-04    2.65      25.7  T
   8    -35.4889962 -0.317809E-08  0.465E-04    2.65      53.8  T
     SCC iter.                  ...        0 min,  0.005 sec
     gradient                   ...        0 min,  0.001 sec
 * total energy  :   -35.0956830 Eh     change       -0.1697889E-03 Eh
   gradient norm :     0.0102903 Eh/α   predicted    -0.1932777E-03 (  13.83%)
   displ. norm   :     0.3515455 α      lambda       -0.3534321E-03
   maximum displ.:     0.2077672 α      in ANC's #1, #3, #26, ...

........................................................................
.............................. CYCLE   42 ..............................
........................................................................
   1    -35.4854508 -0.354855E+02  0.221E-01    2.61       0.0  T
   2    -35.4854741 -0.233073E-04  0.129E-01    2.61       1.0  T
   3    -35.4854274  0.466827E-04  0.768E-02    2.62       1.0  T
   4    -35.4854961 -0.686432E-04  0.168E-02    2.62       1.5  T
   5    -35.4854970 -0.942910E-06  0.906E-03    2.62       2.8  T
   6    -35.4854977 -0.644890E-06  0.251E-03    2.62      10.0  T
   7    -35.4854977 -0.489052E-07  0.107E-03    2.62      23.4  T
   8    -35.4854977 -0.537550E-08  0.486E-04    2.62      51.5  T
   9    -35.4854977  0.284352E-09  0.248E-04    2.62     100.6  T
     SCC iter.                  ...        0 min,  0.005 sec
     gradient                   ...        0 min,  0.001 sec
 * total energy  :   -35.0956615 Eh     change        0.2153383E-04 Eh
   gradient norm :     0.0141380 Eh/α   predicted    -0.1985478E-03 (*******%)
   displ. norm   :     0.1350228 α      lambda       -0.3453147E-03
   maximum displ.:     0.0817838 α      in ANC's #3, #1, #26, ...
 * RMSD in coord.:     1.5107824 α      energy gain  -0.6122051E-02 Eh

generating ANC from model Hessian ...
Using Lindh-Hessian (1995)
 Shifting diagonal of input Hessian by   7.575096187679953E-003
 Lowest  eigenvalues of input Hessian
    0.000000    0.000000    0.000000    0.000000    0.000000    0.000000
    0.010000    0.011862    0.014058    0.021053    0.026412    0.027264
    0.043401    0.050822    0.052007    0.064300    0.068193    0.095982
 Highest eigenvalues
    1.750051    1.798502    1.851324    2.017162    2.022168    2.084126
 

........................................................................
.............................. CYCLE   43 ..............................
........................................................................
   1    -35.4911254 -0.354911E+02  0.110E-01    2.66       0.0  T
   2    -35.4911310 -0.565845E-05  0.640E-02    2.66       1.0  T
   3    -35.4911203  0.106701E-04  0.348E-02    2.66       1.0  T
   4    -35.4911357 -0.153538E-04  0.805E-03    2.66       3.1  T
   5    -35.4911358 -0.127663E-06  0.440E-03    2.66       5.7  T
   6    -35.4911360 -0.148435E-06  0.121E-03    2.66      20.6  T
   7    -35.4911360 -0.143226E-07  0.523E-04    2.66      47.8  T
   8    -35.4911360 -0.681332E-09  0.235E-04    2.66     106.4  T
     SCC iter.                  ...        0 min,  0.005 sec
     gradient                   ...        0 min,  0.001 sec
 * total energy  :   -35.0958169 Eh     change       -0.1553453E-03 Eh
   gradient norm :     0.0048958 Eh/α   predicted     0.0000000E+00 (-100.00%)
   displ. norm   :     0.0292142 α      lambda       -0.3519520E-04
   maximum displ.:     0.0211671 α      in ANC's #1, #6, #2, ...

........................................................................
.............................. CYCLE   44 ..............................
........................................................................
   1    -35.4909750 -0.354910E+02  0.237E-02    2.66       0.0  T
   2    -35.4909750 -0.856939E-07  0.138E-02    2.66       1.8  T
   3    -35.4909743  0.696578E-06  0.749E-03    2.66       3.3  T
   4    -35.4909752 -0.815192E-06  0.131E-03    2.66      19.1  T
   5    -35.4909752 -0.933547E-09  0.654E-04    2.66      38.2  T
   6    -35.4909752 -0.473798E-08  0.142E-04    2.66     175.7  T
     SCC iter.                  ...        0 min,  0.004 sec
     gradient                   ...        0 min,  0.001 sec
 * total energy  :   -35.0958411 Eh     change       -0.2419677E-04 Eh
   gradient norm :     0.0017824 Eh/α   predicted    -0.1761426E-04 ( -27.20%)
   displ. norm   :     0.0507157 α      lambda       -0.1463288E-04
   maximum displ.:     0.0421769 α      in ANC's #1, #2, #3, ...

........................................................................
.............................. CYCLE   45 ..............................
........................................................................
   1    -35.4908523 -0.354909E+02  0.328E-02    2.66       0.0  T
   2    -35.4908525 -0.207370E-06  0.184E-02    2.66       1.4  T
   3    -35.4908516  0.934059E-06  0.917E-03    2.66       2.7  T
   4    -35.4908527 -0.110923E-05  0.217E-03    2.66      11.5  T
   5    -35.4908527 -0.701364E-08  0.884E-04    2.66      28.3  T
   6    -35.4908527 -0.776767E-08  0.280E-04    2.66      89.4  T
     SCC iter.                  ...        0 min,  0.004 sec
     gradient                   ...        0 min,  0.001 sec
 * total energy  :   -35.0958515 Eh     change       -0.1047802E-04 Eh
   gradient norm :     0.0018491 Eh/α   predicted    -0.7322985E-05 ( -30.11%)
   displ. norm   :     0.0265672 α      lambda       -0.4604982E-05
   maximum displ.:     0.0214902 α      in ANC's #1, #2, #3, ...

........................................................................
.............................. CYCLE   46 ..............................
........................................................................
   1    -35.4908853 -0.354909E+02  0.139E-02    2.66       0.0  T
   2    -35.4908854 -0.263151E-07  0.797E-03    2.66       3.1  T
   3    -35.4908854  0.826425E-08  0.144E-03    2.66      17.4  T
   4    -35.4908854 -0.129141E-07  0.759E-04    2.66      33.0  T
   5    -35.4908854 -0.301667E-08  0.387E-04    2.66      64.5  T
     SCC iter.                  ...        0 min,  0.003 sec
     gradient                   ...        0 min,  0.001 sec
 * total energy  :   -35.0958574 Eh     change       -0.5879665E-05 Eh
   gradient norm :     0.0010571 Eh/α   predicted    -0.2301588E-05 ( -60.86%)
   displ. norm   :     0.0512387 α      lambda       -0.6832182E-05
   maximum displ.:     0.0377673 α      in ANC's #1, #2, #6, ...

........................................................................
.............................. CYCLE   47 ..............................
........................................................................
   1    -35.4908973 -0.354909E+02  0.264E-02    2.66       0.0  T
   2    -35.4908973 -0.895834E-07  0.147E-02    2.66       1.7  T
   3    -35.4908973  0.618819E-07  0.330E-03    2.66       7.6  T
   4    -35.4908974 -0.719519E-07  0.189E-03    2.66      13.2  T
   5    -35.4908974 -0.261716E-07  0.379E-04    2.66      65.9  T
   6    -35.4908974 -0.113008E-08  0.159E-04    2.66     157.6  T
     SCC iter.                  ...        0 min,  0.004 sec
     gradient                   ...        0 min,  0.001 sec
 * total energy  :   -35.0958651 Eh     change       -0.7688399E-05 Eh
   gradient norm :     0.0006578 Eh/α   predicted    -0.3420200E-05 ( -55.51%)
   displ. norm   :     0.0552278 α      lambda       -0.4706438E-05
   maximum displ.:     0.0413622 α      in ANC's #1, #2, #6, ...

........................................................................
.............................. CYCLE   48 ..............................
........................................................................
   1    -35.4908816 -0.354909E+02  0.302E-02    2.66       0.0  T
   2    -35.4908817 -0.793927E-07  0.171E-02    2.66       1.5  T
   3    -35.4908817 -0.107618E-07  0.243E-03    2.66      10.3  T
   4    -35.4908817  0.172910E-07  0.171E-03    2.66      14.6  T
   5    -35.4908817 -0.357264E-07  0.253E-04    2.66      98.8  T
   6    -35.4908817 -0.198440E-09  0.144E-04    2.66     173.3  T
     SCC iter.                  ...        0 min,  0.004 sec
     gradient                   ...        0 min,  0.001 sec
 * total energy  :   -35.0958707 Eh     change       -0.5636844E-05 Eh
   gradient norm :     0.0008476 Eh/α   predicted    -0.2354145E-05 ( -58.24%)
   displ. norm   :     0.0522180 α      lambda       -0.3479162E-05
   maximum displ.:     0.0390242 α      in ANC's #1, #2, #9, ...

........................................................................
.............................. CYCLE   49 ..............................
........................................................................
   1    -35.4909174 -0.354909E+02  0.292E-02    2.66       0.0  T
   2    -35.4909175 -0.831390E-07  0.163E-02    2.66       1.5  T
   3    -35.4909175 -0.223310E-07  0.236E-03    2.66      10.6  T
   4    -35.4909175  0.460940E-08  0.837E-04    2.66      29.9  T
   5    -35.4909175 -0.857183E-08  0.211E-04    2.66     118.5  T
     SCC iter.                  ...        0 min,  0.003 sec
     gradient                   ...        0 min,  0.001 sec
 * total energy  :   -35.0958749 Eh     change       -0.4180293E-05 Eh
   gradient norm :     0.0005458 Eh/α   predicted    -0.1742959E-05 ( -58.31%)
   displ. norm   :     0.0433101 α      lambda       -0.1937099E-05
   maximum displ.:     0.0330677 α      in ANC's #1, #2, #3, ...

   *** GEOMETRY OPTIMIZATION CONVERGED AFTER 49 ITERATIONS ***

------------------------------------------------------------------------
 total energy gain   :        -1.6841157 Eh    -1056.7985 kcal/mol
 total RMSD          :         1.7635071 a0        0.9332 Å
 total power (kW/mol):       -90.2376541 (step)********** (real)
------------------------------------------------------------------------

 ANCopt (total)                0 d,  0 h,  0 min,  0.354 sec
 optimizer setup                ...        0 min,  0.000 sec (  0.020%)
 model hessian                  ...        0 min,  0.004 sec (  1.082%)
 ANC generation                 ...        0 min,  0.001 sec (  0.216%)
 coordinate transformation      ...        0 min,  0.000 sec (  0.061%)
 single point calculation       ...        0 min,  0.339 sec ( 95.817%)
 optimization log               ...        0 min,  0.003 sec (  0.919%)
 hessian update                 ...        0 min,  0.001 sec (  0.186%)
 rational function              ...        0 min,  0.005 sec (  1.308%)

================
 final structure:
================
16
 xtb: 6.5.0 (746241f)
C           -0.18684658045544        0.84589196213708       -0.94656663172188
C            0.35097195997189       -0.37454142448683       -0.68750705712144
F            3.20742250649968        3.81673547432006       -0.04620713329861
H            6.78429966840039        1.41096554808160        1.38643476456932
S            4.69408161154680        0.35308551254132        0.74982786848104
C            5.80038438417719        1.63603896115804        1.02760253327237
S            0.91615246211346        2.13050368338902       -0.66306816899958
C            5.27201032261892        2.85543263240197        0.74508195472724
C            1.68294886494192       -0.26545640555991       -0.24991066201201
H           -1.17602153398411        1.07091396372162       -1.29098239046725
H            5.78649067555967        3.79269862333809        0.84573905116137
C            2.16187218582543        1.02191643496258       -0.17432495853895
C            3.94391544622899        2.74695918496095        0.29563741562595
F            2.42860813558795       -1.33592210756755        0.06918701141826
C            3.45892363680218        1.46110682382490        0.23335345920386
H           -0.15921374583504       -1.31302886722295       -0.79689705630006
 
 Bond Distances (Angstroems)
 ---------------------------
C1-C2=1.3586         C1-S7=1.7167         C1-H10=1.0713        C2-C1=1.3586         C2-C9=1.4063         C2-H16=1.0738        
F3-C13=1.3430        H4-C6=1.0712         S5-C6=1.7167         S5-C15=1.7378        C6-H4=1.0712         C6-S5=1.7167         
C6-C8=1.3586         S7-C1=1.7167         S7-C12=1.7377        C8-C6=1.3586         C8-H11=1.0739        C8-C13=1.4063        
C9-C2=1.4063         C9-C12=1.3756        C9-F14=1.3430        H10-C1=1.0713        H11-C8=1.0739        C12-S7=1.7377        
C12-C9=1.3756        C12-C15=1.4288       C13-F3=1.3430        C13-C8=1.4063        C13-C15=1.3757       F14-C9=1.3430        
C15-S5=1.7378        C15-C12=1.4288       C15-C13=1.3757       H16-C2=1.0738        
 C  H  Rav=1.0726 sigma=0.0013  Rmin=1.0712  Rmax=1.0739     4
 C  C  Rav=1.3871 sigma=0.0249  Rmin=1.3586  Rmax=1.4288     7
 F  C  Rav=1.3430 sigma=0.0000  Rmin=1.3430  Rmax=1.3430     2
 S  C  Rav=1.7272 sigma=0.0105  Rmin=1.7167  Rmax=1.7378     4
 
 selected bond angles (degree)
 --------------------
S7-C1-C2=112.73                H10-C1-C2=127.99               H10-C1-S7=119.28               C9-C2-C1=111.38                
H16-C2-C1=125.28               H16-C2-C9=123.33               C15-S5-C6= 91.70               S5-C6-H4=119.28                
C8-C6-H4=127.98                C8-C6-S5=112.74                C12-S7-C1= 91.70               H11-C8-C6=125.28               
C13-C8-C6=111.38               C13-C8-H11=123.35              C12-C9-C2=114.80               F14-C9-C2=122.55               
F14-C9-C12=122.65              
 
 selected dihedral angles (degree)
 ---------------------------------
C9-C2-C1-S7=  0.04            C9-C2-C1-H10=180.03           H16-C2-C1-S7=180.05           H16-C2-C1-H10=  0.04          
H4-C6-S5-C15=179.95           C8-C6-S5-C15=359.96           C12-S7-C1-C2=359.97           C12-S7-C1-H10=179.97          
H11-C8-C6-H4=  0.04           H11-C8-C6-S5=180.04           C13-C8-C6-H4=180.05           C13-C8-C6-S5=  0.05           
C12-C9-C2-C1=  0.00           C12-C9-C2-H16=179.97          F14-C9-C2-C1=179.98           F14-C9-C2-H16=359.97          
           -------------------------------------------------
          |                Final Singlepoint                |
           -------------------------------------------------

          ...................................................
          :                      SETUP                      :
          :.................................................:
          :  # basis functions                  64          :
          :  # atomic orbitals                  62          :
          :  # shells                           30          :
          :  # electrons                        62          :
          :  max. iterations                   250          :
          :  Hamiltonian                  GFN2-xTB          :
          :  restarted?                      false          :
          :  GBSA solvation                  false          :
          :  PC potential                    false          :
          :  electronic temp.          300.0000000     K    :
          :  accuracy                    1.0000000          :
          :  -> integral cutoff          0.2500000E+02      :
          :  -> integral neglect         0.1000000E-07      :
          :  -> SCF convergence          0.1000000E-05 Eh   :
          :  -> wf. convergence          0.1000000E-03 e    :
          :  Broyden damping             0.4000000          :
          ...................................................

 iter      E             dE          RMSdq      gap      omega  full diag
   1    -35.4909175 -0.354909E+02  0.129E-04    2.66       0.0  T
   2    -35.4909175 -0.141540E-10  0.852E-05    2.66     293.4  T
   3    -35.4909175 -0.188507E-10  0.588E-05    2.66     425.2  T

   *** convergence criteria satisfied after 3 iterations ***

         #    Occupation            Energy/Eh            Energy/eV
      -------------------------------------------------------------
         1        2.0000           -0.8256000             -22.4657
       ...           ...                  ...                  ...
        25        2.0000           -0.4714670             -12.8293
        26        2.0000           -0.4696339             -12.7794
        27        2.0000           -0.4569324             -12.4338
        28        2.0000           -0.4431729             -12.0593
        29        2.0000           -0.4110249             -11.1846
        30        2.0000           -0.4098164             -11.1517
        31        2.0000           -0.3849302             -10.4745 (HOMO)
        32                         -0.2872303              -7.8159 (LUMO)
        33                         -0.2380257              -6.4770
        34                         -0.2246727              -6.1137
        35                         -0.2133234              -5.8048
        36                         -0.1938527              -5.2750
       ...                                ...                  ...
        62                          0.6816656              18.5491
      -------------------------------------------------------------
                  HL-Gap            0.0976999 Eh            2.6585 eV
             Fermi-level           -0.3360802 Eh           -9.1452 eV

 SCC (total)                   0 d,  0 h,  0 min,  0.004 sec
 SCC setup                      ...        0 min,  0.000 sec (  1.529%)
 Dispersion                     ...        0 min,  0.000 sec (  1.148%)
 classical contributions        ...        0 min,  0.000 sec (  0.156%)
 integral evaluation            ...        0 min,  0.001 sec ( 14.804%)
 iterations                     ...        0 min,  0.002 sec ( 47.112%)
 molecular gradient             ...        0 min,  0.001 sec ( 33.498%)
 printout                       ...        0 min,  0.000 sec (  1.464%)

         :::::::::::::::::::::::::::::::::::::::::::::::::::::
         ::                     SUMMARY                     ::
         :::::::::::::::::::::::::::::::::::::::::::::::::::::
         :: total energy             -35.095874915867 Eh    ::
         :: gradient norm              0.000545934813 Eh/a0 ::
         :: HOMO-LUMO gap              2.658548727986 eV    ::
         ::.................................................::
         :: SCC energy               -35.490917507548 Eh    ::
         :: -> isotropic ES            0.021623936301 Eh    ::
         :: -> anisotropic ES          0.000480357192 Eh    ::
         :: -> anisotropic XC          0.002290530128 Eh    ::
         :: -> dispersion             -0.018425768324 Eh    ::
         :: repulsion energy           0.395051158855 Eh    ::
         :: add. restraining           0.000000000000 Eh    ::
         :: total charge               0.000000000000 e     ::
         :::::::::::::::::::::::::::::::::::::::::::::::::::::

           -------------------------------------------------
          |                Property Printout                |
           -------------------------------------------------

    * Orbital Energies and Occupations

         #    Occupation            Energy/Eh            Energy/eV
      -------------------------------------------------------------
         1        2.0000           -0.8256000             -22.4657
       ...           ...                  ...                  ...
        19        2.0000           -0.5119724             -13.9315
        20        2.0000           -0.5072219             -13.8022
        21        2.0000           -0.4965395             -13.5115
        22        2.0000           -0.4836651             -13.1612
        23        2.0000           -0.4834975             -13.1566
        24        2.0000           -0.4800847             -13.0638
        25        2.0000           -0.4714670             -12.8293
        26        2.0000           -0.4696339             -12.7794
        27        2.0000           -0.4569324             -12.4338
        28        2.0000           -0.4431729             -12.0593
        29        2.0000           -0.4110249             -11.1846
        30        2.0000           -0.4098164             -11.1517
        31        2.0000           -0.3849302             -10.4745 (HOMO)
        32                         -0.2872303              -7.8159 (LUMO)
        33                         -0.2380257              -6.4770
        34                         -0.2246727              -6.1137
        35                         -0.2133234              -5.8048
        36                         -0.1938527              -5.2750
        37                         -0.1641370              -4.4664
        38                         -0.1491023              -4.0573
        39                         -0.1171974              -3.1891
        40                         -0.0256088              -0.6968
        41                         -0.0063501              -0.1728
        42                          0.0052044               0.1416
       ...                                ...                  ...
        62                          0.6816656              18.5491
      -------------------------------------------------------------
                  HL-Gap            0.0976999 Eh            2.6585 eV
             Fermi-level           -0.3360802 Eh           -9.1452 eV

     #   Z          covCN         q      C6AA      α(0)
     1   6 C        2.952    -0.029    28.731     8.791
     2   6 C        3.092    -0.062    29.434     8.892
     3   9 F        0.786    -0.213    11.366     3.982
     4   1 H        0.926     0.063     2.169     2.303
     5  16 S        2.342     0.033   139.732    19.895
     6   6 C        2.952    -0.029    28.731     8.792
     7  16 S        2.342     0.033   139.732    19.895
     8   6 C        3.091    -0.062    29.434     8.893
     9   6 C        3.004     0.148    24.778     8.165
    10   1 H        0.926     0.063     2.169     2.303
    11   1 H        0.926     0.064     2.152     2.294
    12   6 C        3.006    -0.003    28.078     8.692
    13   6 C        3.004     0.148    24.777     8.165
    14   9 F        0.786    -0.213    11.366     3.982
    15   6 C        3.006    -0.003    28.079     8.692
    16   1 H        0.926     0.064     2.152     2.294

 Mol. C6AA /au·bohr⁶  :       6096.070875
 Mol. C8AA /au·bohr⁸  :     192664.921597
 Mol. α(0) /au        :        126.032555


Wiberg/Mayer (AO) data.
largest (>0.10) Wiberg bond orders for each atom

 ---------------------------------------------------------------------------
     #   Z sym  total        # sym  WBO       # sym  WBO       # sym  WBO
 ---------------------------------------------------------------------------
     1   6 C    3.939 --     2 C    1.598     7 S    1.208    10 H    0.969
     2   6 C    3.984 --     1 C    1.598     9 C    1.270    16 H    0.962
     3   9 F    1.113 --    13 C    0.961
     4   1 H    0.996 --     6 C    0.969
     5  16 S    2.641 --     6 C    1.208    15 C    1.140
     6   6 C    3.939 --     8 C    1.598     5 S    1.208     4 H    0.969
     7  16 S    2.641 --     1 C    1.208    12 C    1.140
     8   6 C    3.984 --     6 C    1.598    13 C    1.270    11 H    0.962
     9   6 C    3.877 --    12 C    1.449     2 C    1.270    14 F    0.961
    10   1 H    0.996 --     1 C    0.969
    11   1 H    0.996 --     8 C    0.962
    12   6 C    3.953 --     9 C    1.449    15 C    1.158     7 S    1.140
    13   6 C    3.877 --    15 C    1.449     8 C    1.270     3 F    0.961
    14   9 F    1.113 --     9 C    0.961
    15   6 C    3.953 --    13 C    1.449    12 C    1.158     5 S    1.140
    16   1 H    0.996 --     2 C    0.962
 ---------------------------------------------------------------------------

Topologies differ in total number of bonds
Writing topology from bond orders to xtbtopo.mol

molecular dipole:
                 x           y           z       tot (Debye)
 q only:       -0.006      -0.000       0.014
   full:       -0.004      -0.001       0.010       0.028
molecular quadrupole (traceless):
                xx          xy          yy          xz          yz          zz
 q only:       10.846       2.439     -10.347       4.258       1.517      -0.498
  q+dip:       13.142       7.349     -11.908       4.920       3.220      -1.234
   full:       12.864       6.660     -12.864       4.399       3.160       0.000

           -------------------------------------------------
          |                Geometry Summary                 |
           -------------------------------------------------

      molecular mass/u    :      202.2440313
   center of mass at/Å    :        2.8101839       1.2410897       0.0310860
  moments of inertia/u·Å² :        0.4050684E+03   0.7945686E+03   0.1199570E+04
rotational constants/cm⁻¹ :        0.4161675E-01   0.2121608E-01   0.1405306E-01

 * 17 selected distances

     #   Z          #   Z                                           value/Å
     1   6 C        2   6 C                                       1.3586091
     4   1 H        6   6 C                                       1.0712181 (min)
     5  16 S        6   6 C                                       1.7166930
     1   6 C        7  16 S                                       1.7167429
     6   6 C        8   6 C                                       1.3586458
     2   6 C        9   6 C                                       1.4062550
     1   6 C       10   1 H                                       1.0713190
     8   6 C       11   1 H                                       1.0739132
     7  16 S       12   6 C                                       1.7377151
     9   6 C       12   6 C                                       1.3756489
     3   9 F       13   6 C                                       1.3430194
     8   6 C       13   6 C                                       1.4062728
     9   6 C       14   9 F                                       1.3430295
     5  16 S       15   6 C                                       1.7378357 (max)
    12   6 C       15   6 C                                       1.4287872
    13   6 C       15   6 C                                       1.3756864
     2   6 C       16   1 H                                       1.0737851

 * 4 distinct bonds (by element types)

   Z      Z             #   av. dist./Å        max./Å        min./Å
   1 H    6 C           4     1.0725589     1.0739132     1.0712181
   6 C    6 C           7     1.3871293     1.4287872     1.3586091
   6 C    9 F           2     1.3430245     1.3430295     1.3430194
   6 C   16 S           4     1.7272467     1.7378357     1.7166930


optimized geometry written to: xtbopt.xyz


           -------------------------------------------------
          | TOTAL ENERGY              -35.095874915867 Eh   |
          | GRADIENT NORM               0.000545934813 Eh/α |
          | HOMO-LUMO GAP               2.658548727986 eV   |
           -------------------------------------------------
########################################################################
[WARNING] Runtime exception occurred
-1- restart_readRestart: Number of electron missmatch in restart file.
########################################################################

------------------------------------------------------------------------
 * finished run on 2022/07/14 at 15:23:24.565     
------------------------------------------------------------------------
 total:
 * wall-time:     0 d,  0 h,  0 min,  0.383 sec
 *  cpu-time:     0 d,  0 h,  0 min,  6.075 sec
 * ratio c/w:    15.870 speedup
 SCF:
 * wall-time:     0 d,  0 h,  0 min,  0.010 sec
 *  cpu-time:     0 d,  0 h,  0 min,  0.156 sec
 * ratio c/w:    15.684 speedup
 ANC optimizer:
 * wall-time:     0 d,  0 h,  0 min,  0.359 sec
 *  cpu-time:     0 d,  0 h,  0 min,  5.727 sec
 * ratio c/w:    15.940 speedup

