16
 energy: -35.095874915867 gnorm: 0.000545934813 xtb: 6.5.0 (746241f)
C           -0.18684658045544        0.84589196213708       -0.94656663172188
C            0.35097195997189       -0.37454142448683       -0.68750705712144
F            3.20742250649968        3.81673547432006       -0.04620713329861
H            6.78429966840039        1.41096554808160        1.38643476456932
S            4.69408161154680        0.35308551254132        0.74982786848104
C            5.80038438417719        1.63603896115804        1.02760253327237
S            0.91615246211346        2.13050368338902       -0.66306816899958
C            5.27201032261892        2.85543263240197        0.74508195472724
C            1.68294886494192       -0.26545640555991       -0.24991066201201
H           -1.17602153398411        1.07091396372162       -1.29098239046725
H            5.78649067555967        3.79269862333809        0.84573905116137
C            2.16187218582543        1.02191643496258       -0.17432495853895
C            3.94391544622899        2.74695918496095        0.29563741562595
F            2.42860813558795       -1.33592210756755        0.06918701141826
C            3.45892363680218        1.46110682382490        0.23335345920386
H           -0.15921374583504       -1.31302886722295       -0.79689705630006
