16
 energy: -33.411759258355 gnorm: 3.937024939507 xtb: 6.5.0 (746241f)
C           -0.09690000000000        0.70470000000000       -0.35980000000000
C            0.70750000000000       -0.18230000000000       -0.97700000000000
F            3.74840000000000        3.00520000000000       -0.93360000000000
H            6.18860000000000        1.55390000000000        2.07000000000000
S            3.80220000000000        1.08460000000000        1.56200000000000
C            5.37080000000000        1.76650000000000        1.39240000000000
S            1.05330000000000        1.65960000000000        0.48870000000000
C            5.19700000000000        2.55040000000000        0.31080000000000
C            2.02450000000000        0.19340000000000       -0.55930000000000
H           -1.16400000000000        0.88650000000000       -0.32390000000000
H            5.92480000000000        3.20670000000000       -0.16030000000000
C            1.97400000000000        1.08020000000000        0.15120000000000
C            3.83310000000000        2.32810000000000       -0.06390000000000
F            2.63120000000000       -0.56110000000000       -1.09280000000000
C            3.35230000000000        1.57010000000000        0.63450000000000
H            0.41920000000000       -0.99320000000000       -1.64160000000000
16
 energy: -34.619436696919 gnorm: 0.968902739892 xtb: 6.5.0 (746241f)
C           -0.11099516024259        0.71051562147313       -0.35654566170274
C            0.69728383723453       -0.17873844658728       -0.97500486670177
F            3.73419975797997        3.05353636804474       -1.00137394187551
H            6.19008188116182        1.55498877470511        2.06969964514102
S            3.87168677664085        1.00109881074050        1.71297717707952
C            5.37919872035608        1.76183657479373        1.40472159549831
S            0.90501493814923        1.75710392763851        0.54778207439578
C            5.20371491345689        2.54752543427401        0.31921077163205
C            2.01538182750035        0.16526004374304       -0.58275416515241
H           -1.16499364065134        0.88523459565759       -0.32493355809950
H            5.92343113985027        3.20499169947738       -0.15905938385162
C            2.07222270872502        1.05104845629414        0.13730703870709
C            3.85866486736404        2.35057836338143       -0.08167516134524
F            2.68431511544625       -0.61492850205536       -1.13019848013470
C            3.28722368888109        1.59448160448789        0.55724242830157
H            0.41956862814754       -0.99123332606856       -1.63999551189185
16
 energy: -34.896502765618 gnorm: 0.507519361331 xtb: 6.5.0 (746241f)
C           -0.13457057301871        0.71249709938731       -0.35634088154741
C            0.65654714043266       -0.18574276443062       -0.98201763804799
F            3.72772690336896        3.12224841917052       -1.09906750272328
H            6.20285883196944        1.55860952771370        2.07408447064593
S            3.90520584194518        0.96367682623566        1.78314206329601
C            5.39572697154892        1.76250776857575        1.42113956535965
S            0.83183211728005        1.79548384311810        0.58210704440759
C            5.24033891124892        2.55655409107289        0.33966522727626
C            1.98030560362477        0.10088795898391       -0.62759801060224
H           -1.17839317177918        0.88022783216506       -0.32844814203712
H            5.93434955854640        3.20491773468721       -0.15254824762770
C            2.05741399895801        1.07775826696583        0.17540196324669
C            3.91963719588816        2.41224214658696       -0.10142972511657
F            2.74842089293290       -0.69483523359228       -1.18796559377834
C            3.27133791360653        1.57813645213245        0.59760446255202
H            0.40726186344699       -0.99186996877246       -1.64032905530350
16
 energy: -35.010942392545 gnorm: 0.278043927612 xtb: 6.5.0 (746241f)
C           -0.18244721032487        0.70822881843217       -0.36526959160787
C            0.61110384218122       -0.18962194024487       -0.98921670239713
F            3.69783383271617        3.14802657912414       -1.16577680208446
H            6.24711630753629        1.56822182029518        2.08752277130405
S            3.97708634883993        0.94010414893202        1.84192320960549
C            5.43742111591464        1.76920195573721        1.44477419721272
S            0.73373016311327        1.81452305680163        0.58950947061045
C            5.28052527177855        2.56491343891068        0.36428413732572
C            1.94040891514230        0.06457329850494       -0.65946969842754
H           -1.22277955707803        0.86755394707025       -0.34381317912794
H            5.95948992138723        3.20685510630978       -0.14333797846190
C            2.03156521809625        1.08385577969461        0.18157099873991
C            3.97465832798670        2.44941215988786       -0.10585049766351
F            2.81192998953641       -0.72690718274932       -1.20987049486229
C            3.28554362573375        1.57943633012769        0.61632568497983
H            0.38281388744019       -0.99507731683397       -1.64590552514554
16
 energy: -35.058533905407 gnorm: 0.142872993342 xtb: 6.5.0 (746241f)
C           -0.22968000079012        0.70373490497366       -0.37342740574336
C            0.56729299651749       -0.19542030278229       -0.99685866656270
F            3.66475950442477        3.16179040494938       -1.20918904668747
H            6.30807704680345        1.58988507276088        2.10157250062341
S            4.04327039833410        0.91739207140808        1.88302911653739
C            5.47780980605516        1.77829129598427        1.46838709469977
S            0.64996667998279        1.82881156265392        0.59153635722837
C            5.31971547326699        2.57695627560460        0.38707004711901
C            1.90906998028763        0.03820189554104       -0.68371227708135
H           -1.28129174732222        0.84321170303508       -0.36879740179418
H            6.00843578016956        3.21475404545175       -0.12041759991422
C            2.01897750368089        1.08800584096101        0.18123283396836
C            4.01912171261318        2.47363293859038       -0.11362663232227
F            2.86370339219895       -0.74292495317300       -1.21251403266478
C            3.29479595111740        1.57922650097375        0.61829759454734
H            0.33197552265999       -1.00224925693251       -1.65518248195333
16
 energy: -35.075579510207 gnorm: 0.090819258116 xtb: 6.5.0 (746241f)
C           -0.27537353221918        0.69560897324038       -0.38053953833374
C            0.52289133981356       -0.20525698721592       -1.00314446876338
F            3.65489343911326        3.17171346802521       -1.22242982275584
H            6.37287495490981        1.63396384705806        2.11277861987757
S            4.09902632094080        0.90201523424241        1.89871667209733
C            5.51823140492971        1.79371385854195        1.48988217097828
S            0.59324895941334        1.83173075761939        0.58406323222109
C            5.35810022262335        2.59340418927837        0.40783100616578
C            1.87947815563861        0.01824839656423       -0.70081026644715
H           -1.33914818635599        0.80582654807092       -0.39919155911507
H            6.07172291569676        3.23237202065358       -0.07256243661347
C            2.01243934781454        1.08363815695920        0.16987001166601
C            4.05848043537073        2.48261806932762       -0.12267566030592
F            2.87616517555509       -0.75484491585172       -1.20912124560439
C            3.31015752851835        1.57707028839043        0.60431830344549
H            0.25281151823726       -1.00852190490412       -1.65958501851261
16
 energy: -35.082779125122 gnorm: 0.065063162736 xtb: 6.5.0 (746241f)
C           -0.31168364798116        0.68848897453964       -0.38258806219170
C            0.48391597944365       -0.21568281962740       -1.00527950763213
F            3.66477338444549        3.17187381110170       -1.22410238794217
H            6.41996226906539        1.68887189801165        2.12693778252294
S            4.14424814084389        0.88535142830093        1.89370344386407
C            5.55031529340552        1.81153157323601        1.50923195102095
S            0.56243565137122        1.83021598093271        0.56990909283303
C            5.38799327921688        2.61159040311986        0.42697836878865
C            1.85258452437843        0.00270939029081       -0.71585773031666
H           -1.38120226390057        0.77180497994142       -0.41803676021726
H            6.12560249374570        3.26068537031382       -0.00971389483214
C            2.01521147370719        1.07488907921543        0.14873849750170
C            4.09363500075030        2.47979298706920       -0.13331563481034
F            2.86185389568447       -0.76419857443150       -1.21114006185746
C            3.32819083887135        1.56824584425372        0.57608653988920
H            0.16816368695227       -1.01287032626801       -1.65415163662071
16
 energy: -35.086295522862 gnorm: 0.043909389077 xtb: 6.5.0 (746241f)
C           -0.33651629754299        0.68305291488668       -0.38101247246368
C            0.45596524803696       -0.22437893023785       -1.00475578541477
F            3.68593891269296        3.16109808279934       -1.22208946108756
H            6.44548639238168        1.73734741307847        2.14276524265405
S            4.17830811168014        0.86898424583665        1.87807715617667
C            5.57146501381244        1.82758621810392        1.52495833500354
S            0.54932707783515        1.82736855758934        0.55453402046911
C            5.40678759194574        2.62782631858420        0.44221692296707
C            1.83020726219058       -0.00607126501959       -0.72798683946838
H           -1.40701691553218        0.74752297085870       -0.42315643229905
H            6.15915924092385        3.28987175255321        0.04734736877278
C            2.02437578427611        1.06640284472312        0.12425410199091
C            4.12134507168922        2.47244835859374       -0.14052215688819
F            2.83546232162890       -0.76692223222662       -1.21769219813378
C            3.34416816567728        1.55715984162896        0.54329625014398
H            0.10153701830416       -1.01599709175230       -1.64283405242270
16
 energy: -35.088044940079 gnorm: 0.024827128319 xtb: 6.5.0 (746241f)
C           -0.34892921726642        0.68004892266944       -0.37929566897739
C            0.44203163210069       -0.23013134605573       -1.00312252805590
F            3.70740268899251        3.14688188291125       -1.21676057303540
H            6.45255603231370        1.76560029108687        2.15462321549777
S            4.19979940162502        0.85679659517939        1.86139628544526
C            5.58158201120365        1.83709608233927        1.53368476162180
S            0.54677957612939        1.82534930829077        0.54206587742903
C            5.41427248089553        2.63867128239918        0.45114177288687
C            1.81462859533508       -0.00743887348932       -0.73430992722845
H           -1.41828309134083        0.73635244215539       -0.42036613622557
H            6.16873557253419        3.31169482518980        0.08284874603969
C            2.03603303643872        1.06152790155738        0.10343941100667
C            4.13814895694087        2.46588021694962       -0.14122895310390
F            2.80972210141397       -0.76409300120608       -1.22197488016411
C            3.35398491854293        1.54847240823205        0.51575245844862
H            0.06753530414102       -1.01940893820932       -1.63049386158501
16
 energy: -35.088718580152 gnorm: 0.015664706447 xtb: 6.5.0 (746241f)
C           -0.34950503612076        0.68098497765251       -0.37835910116788
C            0.43865303811282       -0.23323754515207       -1.00100635036485
F            3.72124199388062        3.13792907809430       -1.21159658097629
H            6.44646923454118        1.77137197907638        2.16249757476878
S            4.20833354712897        0.84922506101509        1.84879058194697
C            5.58206088958183        1.83896173898427        1.53509300194587
S            0.55223344925275        1.82537563628007        0.53364281432477
C            5.41330925761099        2.64464687273272        0.45511590260803
C            1.80721338854309       -0.00636714020881       -0.73585787580789
H           -1.41733404150900        0.74184143465159       -0.41223193183478
H            6.15929557170052        3.32837867190425        0.09518497167866
C            2.04626977877576        1.05993631347510        0.08991904316169
C            4.14414705117274        2.46178708674647       -0.13844170389187
F            2.79265627859302       -0.76413201866221       -1.22332722083704
C            3.35794686011480        1.54193759277277        0.49893802202143
H            0.06300873862071       -1.02533973936247       -1.62096114757563
16
 energy: -35.088966431462 gnorm: 0.012582250715 xtb: 6.5.0 (746241f)
C           -0.34587912935546        0.68381174445169       -0.37735401902362
C            0.43694316984819       -0.23543044245158       -0.99902287739872
F            3.72892591194379        3.13584646717454       -1.20960507951766
H            6.43760701059599        1.76845687979656        2.16997023507100
S            4.21100162988626        0.84370988336020        1.83990947424145
C            5.57934355977916        1.83867550348276        1.53452575567611
S            0.56074401767720        1.82655094290172        0.52736398108307
C            5.41093985319907        2.64945272132408        0.45844463525667
C            1.80379428411910       -0.00781157429754       -0.73665766085429
H           -1.41315075051079        0.75506684243421       -0.40196516159739
H            6.14640660937689        3.34355601608705        0.09807743224350
C            2.05332485899288        1.05894695315615        0.08092752988916
C            4.14598529290193        2.46005167685413       -0.13622094658622
F            2.78255030294406       -0.77077213615973       -1.22531303557232
C            3.36057150498060        1.53579146934965        0.48942625332820
H            0.06689187362116       -1.03260294746394       -1.61510651623896
16
 energy: -35.089115468212 gnorm: 0.009416202349 xtb: 6.5.0 (746241f)
C           -0.34296054291140        0.68660543857860       -0.37598820517147
C            0.43265112150826       -0.23823484452110       -0.99701877506662
F            3.73596517640929        3.13843077073757       -1.20902271668575
H            6.42993849047086        1.76577521802935        2.17910436868986
S            4.21406209376027        0.83798612823969        1.83116715073511
C            5.57730760447776        1.83987504298930        1.53521506174534
S            0.57023409175233        1.82806261798656        0.52030619733576
C            5.41014354100831        2.65567615587602        0.46351257952239
C            1.79986069006118       -0.01240383894147       -0.73830846704205
H           -1.41043529550418        0.76949860498593       -0.39087034765049
H            6.13564227767206        3.35942850299213        0.10109908988918
C            2.05920931008963        1.05718441510299        0.07136843226056
C            4.14842469769402        2.46024782932354       -0.13445982110289
F            2.77290241350404       -0.78312290283699       -1.22911872070754
C            3.36479490543275        1.52878255334120        0.48075032560577
H            0.06825942457484       -1.04049169188336       -1.61033615235720
16
 energy: -35.089228131682 gnorm: 0.006626978750 xtb: 6.5.0 (746241f)
C           -0.34233266676895        0.68892173485585       -0.37469657244606
C            0.42518499104939       -0.24209040492146       -0.99473291830749
F            3.74367352970156        3.14590123661994       -1.20804603082611
H            6.42515817166920        1.76588051118011        2.18894725781020
S            4.21933418834810        0.83162537324959        1.82132806810942
C            5.57730390937930        1.84311638020067        1.53770539295105
S            0.58005917495249        1.82971268819375        0.51160098861664
C            5.41128654154111        2.66361724107420        0.47048592480942
C            1.79424582701886       -0.02002766225897       -0.74084968863501
H           -1.41009300269790        0.78243572771561       -0.38114748857918
H            6.12864514054228        3.37602321028638        0.10793713348929
C            2.06476629826984        1.05429146998548        0.05974352614216
C            4.15250696266162        2.46245111229201       -0.13290158178108
F            2.76152903166453       -0.80085364483735       -1.23394999479070
C            3.37119736546111        1.52085570812064        0.47077239831709
H            0.06353453720748       -1.04856068175650       -1.60479641487968
16
 energy: -35.089315119203 gnorm: 0.005788850981 xtb: 6.5.0 (746241f)
C           -0.34384281548723        0.69094063866097       -0.37412137052695
C            0.41631729964474       -0.24648827498899       -0.99207093247613
F            3.75094124529041        3.15781917542452       -1.20547165464546
H            6.42412132856286        1.76883964527568        2.19691145604175
S            4.22629701388146        0.82531248675232        1.81095738935901
C            5.57935673574874        1.84731162715111        1.54113312279478
S            0.58950195426595        1.83139682883975        0.50207042405127
C            5.41332691241796        2.67198908141378        0.47800615191150
C            1.78782406268249       -0.02963448551739       -0.74331400469056
H           -1.41146816606602        0.79212360682345       -0.37565659016567
H            6.12561921975098        3.39143075535210        0.11906779736638
C            2.07006327979429        1.05046830494266        0.04719551651753
C            4.15722411331613        2.46644407215377       -0.13141896292052
F            2.74913435938277       -0.82193594903193       -1.23804499063485
C            3.37873864841360        1.51292636677395        0.45995366897997
H            0.05284480840091       -1.05564388002580       -1.59779702096209
16
 energy: -35.089373002282 gnorm: 0.005919669839 xtb: 6.5.0 (746241f)
C           -0.34582804710374        0.69286327431446       -0.37470167604175
C            0.40992798140160       -0.24990954310298       -0.98953583169718
F            3.75508358859604        3.17027000382932       -1.20162730230037
H            6.42631328691915        1.77269610307752        2.19984923444556
S            4.23232691080417        0.82080323472977        1.80280086594032
C            5.58212952897796        1.85025370476849        1.54357698696364
S            0.59670835895717        1.83276156860945        0.49457820144197
C            5.41438104812076        2.67809633804775        0.48335649806884
C            1.78320085544540       -0.03833204924300       -0.74418889952028
H           -1.41284924216556        0.79727136613776       -0.37636013675792
H            6.12556009918311        3.40166748706974        0.13089659080277
C            2.07411868461472        1.04669017190359        0.03770486931442
C            4.16012068677666        2.47091377215353       -0.13013030925580
F            2.73936585169406       -0.84020351790508       -1.23941104297072
C            3.38469178737256        1.50715119400181        0.45142424450747
H            0.04074862040597       -1.05969310839219       -1.59083229294101
16
 energy: -35.089411758454 gnorm: 0.005705401464 xtb: 6.5.0 (746241f)
C           -0.34665119292252        0.69516327623851       -0.37612409624656
C            0.40714803946600       -0.25197632680245       -0.98729571712049
F            3.75592572593479        3.18032259363125       -1.19753438914703
H            6.42956775265023        1.77567292441043        2.19847313869293
S            4.23633392112954        0.81783282213835        1.79718073779516
C            5.58427098202135        1.85119935436657        1.54424404883633
S            0.60201081513681        1.83390262335063        0.48968167511340
C            5.41359050356508        2.68183602176528        0.48621777632604
C            1.78120978768829       -0.04517198103211       -0.74335312900117
H           -1.41291688131101        0.80024077145533       -0.38107275128334
H            6.12592394868892        3.40756396949133        0.14099780138321
C            2.07703636662664        1.04329701841724        0.03209418804703
C            4.16043925604749        2.47484918800491       -0.12902513070458
F            2.73302881173830       -0.85377226520771       -1.23820585068884
C            3.38830353066940        1.50345545501046        0.44582489875311
H            0.03077863287072       -1.06111544523808       -1.58470320075525
16
 energy: -35.089439265897 gnorm: 0.005454785688 xtb: 6.5.0 (746241f)
C           -0.34572018915973        0.69810130940424       -0.37773834937385
C            0.40669694837475       -0.25324898296569       -0.98519597539771
F            3.75499053884972        3.18736178746427       -1.19388877576423
H            6.43186702580350        1.77716415613483        2.19550172074871
S            4.23889960252606        0.81490440082099        1.79265021414863
C            5.58521231966999        1.85075533538084        1.54354793204079
S            0.60676212621562        1.83534019742382        0.48603757380877
C            5.41131399784422        2.68470077363454        0.48794461391876
C            1.78105346531471       -0.05078420158098       -0.74175027325280
H           -1.41134515393931        0.80394199695743       -0.38623301485683
H            6.12471493949609        3.41231640814373        0.14913621867748
C            2.07955327611566        1.04018892601814        0.02861329493894
C            4.15906155308218        2.47798604259664       -0.12805917221633
F            2.72868723963414       -0.86428017040076       -1.23570700520387
C            3.39049798935212        1.50049062076931        0.44174008004368
H            0.02375432082032       -1.06163859980143       -1.57919908226018
16
 energy: -35.089465502255 gnorm: 0.005480703200 xtb: 6.5.0 (746241f)
C           -0.34318836212597        0.70209937693594       -0.37937868861577
C            0.40666198559354       -0.25465158908294       -0.98264247876946
F            3.75350349676072        3.19370606937679       -1.19008013626949
H            6.43277572699807        1.77759398867752        2.19270281918113
S            4.24167939443895        0.81022668842133        1.78692642632363
C            5.58529011447324        1.84979008376513        1.54216383035857
S            0.61280051121942        1.83798100268926        0.48130751416741
C            5.40800831361733        2.68849715441271        0.49023882824267
C            1.78146102752184       -0.05718682153042       -0.73999607424493
H           -1.40827377544830        0.81042163333822       -0.39042655039529
H            6.12105735773361        3.41918386901424        0.15748821047372
C            2.08268946487406        1.03664580257055        0.02454590797198
C            4.15699991897660        2.48121534983988       -0.12694360765576
F            2.72392627702406       -0.87603295493185       -1.23249279838931
C            3.39296065945971        1.49660630570245        0.43684218105628
H            0.01764788888315       -1.06279595919887       -1.57285538343540
16
 energy: -35.089498606142 gnorm: 0.005688383552 xtb: 6.5.0 (746241f)
C           -0.33883783380077        0.70799514967066       -0.38135007560080
C            0.40587839431052       -0.25692415170136       -0.97884157330390
F            3.75144732406609        3.20198323149528       -1.18482649281928
H            6.43240063631372        1.77711246750178        2.19049524684887
S            4.24631821397044        0.80176385327311        1.77772121216978
C            5.58483922496712        1.84856066875271        1.54019679191362
S            0.62191952417038        1.84327169833678        0.47302934970596
C            5.40351783992188        2.69469229057738        0.49441252532908
C            1.78177379739657       -0.06650510543207       -0.73813257155212
H           -1.40338996314983        0.82155349076309       -0.39377593381734
H            6.11394525009515        3.43106249567303        0.16872602994456
C            2.08738666060058        1.03176906253865        0.01763589695533
C            4.15452375957983        2.48562724970339       -0.12534410144231
F            2.71684571158133       -0.89332293585883       -1.22788744592321
C            3.39715106063876        1.49038693391094        0.42900674530459
H            0.01028039933826       -1.06572639920462       -1.56366560371290
16
 energy: -35.089539459424 gnorm: 0.005853331136 xtb: 6.5.0 (746241f)
C           -0.33303998295137        0.71567910517805       -0.38379172931007
C            0.40355962223006       -0.26028904743901       -0.97360520885625
F            3.74843622407316        3.21322108569814       -1.17744911080139
H            6.43089768992653        1.77551743014010        2.18943336531196
S            4.25370062388718        0.78857404314766        1.76424863202042
C            5.58419649220741        1.84728323867210        1.53786312602147
S            0.63419235048338        1.85230771650647        0.45984706194150
C            5.39834489932635        2.70342912603208        0.50093071094538
C            1.78150591380986       -0.07891305564116       -0.73642244914566
H           -1.39708832648501        0.83720678938557       -0.39596721851531
H            6.10327269383885        3.44863183822295        0.18335016793355
C            2.09366926397374        1.02564333643681        0.00696735925358
C            4.15211321970813        2.49139532269106       -0.12320281112335
F            2.70724722321756       -0.91694044611353       -1.22134297178417
C            3.40370821333493        1.48169885299383        0.41757337023364
H            0.00128387941928       -1.07114533591119       -1.55103229412534
16
 energy: -35.089581563286 gnorm: 0.005892827650 xtb: 6.5.0 (746241f)
C           -0.32749077061713        0.72328953900750       -0.38650342261868
C            0.39994210117351       -0.26402272230078       -0.96789896735982
F            3.74421701937944        3.22589601558698       -1.16869452116341
H            6.42904485125901        1.77279125115228        2.18961605614565
S            4.26270312771558        0.77301272029460        1.74894446626425
C            5.58383850564299        1.84614123399112        1.53568687606093
S            0.64672955774318        1.86404833817063        0.44356233507618
C            5.39395291079760        2.71241190503150        0.50841143089386
C            1.78053350440964       -0.09127499658060       -0.73526583114068
H           -1.39113765803984        0.85313111026017       -0.39688299193957
H            6.09155169319843        3.46775121063786        0.19846123409682
C            2.10003560848041        1.01986718093401       -0.00549210722483
C            4.15045185046832        2.49723347542237       -0.12096950312055
F            2.69763352915407       -0.94150715001293       -1.21334835983502
C            3.41139475482113        1.47283534041170        0.40482985667617
H           -0.00740058558630       -1.07830445200647       -1.53705655081134
16
 energy: -35.089693315139 gnorm: 0.002606517235 xtb: 6.5.0 (746241f)
C           -0.32968914885149        0.72394913041509       -0.39028577499911
C            0.39851381670441       -0.26559910036697       -0.96553478496149
F            3.73636686705642        3.23057096984807       -1.16167039588783
H            6.43218824375082        1.77115068528967        2.18813142039234
S            4.27348914102332        0.75860391948929        1.73617653297069
C            5.58656794231840        1.84457977355554        1.53451504645380
S            0.64616175322544        1.87577813971681        0.42426809311361
C            5.39452600748178        2.71271102811150        0.50970017501745
C            1.77911187220027       -0.09025972255287       -0.73195244036275
H           -1.39334788079832        0.85248368152714       -0.40081782560019
H            6.08957261682010        3.47091907904651        0.20136742278292
C            2.09883656839719        1.01980573277094       -0.00132977716272
C            4.15012525895570        2.49748981071909       -0.11884251309911
F            2.69997856008674       -0.94154905743973       -1.20352641612663
C            3.41046025669099        1.47578216021504        0.40874744268275
H           -0.00686187506171       -1.08311623034519       -1.53154620521378
16
 energy: -35.089780028237 gnorm: 0.002049410116 xtb: 6.5.0 (746241f)
C           -0.33022025448891        0.72911923665707       -0.40239635146911
C            0.39775761441800       -0.26952141464663       -0.96146846515289
F            3.72131050119923        3.24714731231613       -1.14556499106928
H            6.44015834998215        1.75956267450730        2.17709602695570
S            4.28269181952087        0.74456406564239        1.72154845381410
C            5.59279436739043        1.83633170205128        1.52589267703960
S            0.64675058093545        1.88793968103393        0.40338549374130
C            5.39395876134781        2.71526972047808        0.51196348922155
C            1.77776559096305       -0.09345090930997       -0.72388548909783
H           -1.39362830067307        0.85832286861138       -0.41548608751442
H            6.08456481926124        3.47953008816891        0.20869635529238