      -----------------------------------------------------------      
     |                   =====================                   |     
     |                           x T B                           |     
     |                   =====================                   |     
     |                         S. Grimme                         |     
     |          Mulliken Center for Theoretical Chemistry        |     
     |                    University of Bonn                     |     
      -----------------------------------------------------------      

   * xtb version 6.2.2 (655bc02) compiled by 'ehlert@majestix' on 2019-12-09

   This program is distributed in the hope that it will be useful,
   but WITHOUT ANY WARRANTY; without even the implied warranty of
   MERCHANTABILITY or FITNESS FOR A PARTICULAR PURPOSE.
   
   FOR NON-COMMERCIAL, ACADEMIA USE ONLY.
   
   Cite this work as:
   * S. Grimme, C. Bannwarth, P. Shushkov, J. Chem. Theory Comput., 2017,
     13, 1989-2009. DOI: 10.1021/acs.jctc.7b00118
   * C. Bannwarth, S. Ehlert and S. Grimme., J. Chem. Theory Comput., 2019,
     15, 1652-1671. DOI: 10.1021/acs.jctc.8b01176
   * P. Pracht, E. Caldeweyher, S. Ehlert, S. Grimme, ChemRxiv, 2019, preprint.
     DOI: 10.26434/chemrxiv.8326202.v1
   
   for DFT-D4:
   * E. Caldeweyher, C. Bannwarth and S. Grimme, J. Chem. Phys., 2017,
     147, 034112. DOI: 10.1063/1.4993215
   * E. Caldeweyher, S. Ehlert, A. Hansen, H. Neugebauer, S. Spicher,
     C. Bannwarth and S. Grimme, J. Chem. Phys., 2019, 150, 154122.
     DOI: 10.1063/1.5090222
   
   for sTDA-xTB:
   * S. Grimme and C. Bannwarth, J. Chem. Phys., 2016, 145, 054103.
     DOI: 10.1063/1.4959605
   
   in the mass-spec context:
   * V. Asgeirsson, C. Bauer and S. Grimme, Chem. Sci., 2017, 8, 4879.
     DOI: 10.1039/c7sc00601b
   
   for metadynamics refer to:
   * S. Grimme, J. Chem. Theory Comput., 2019, 155, 2847-2862
     DOI: 10.1021/acs.jctc.9b00143
   
   with help from (in alphabetical order)
   C. Bannwarth, F. Bohle, G. Brandenburg, E. Caldeweyher, M. Checinski,
   S. Dohm, S. Ehlert, S. Ehrlich, F. März, H. Neugebauer, J. Pisarek,
   P. Pracht, P. Shushkov, and S. Spicher.
   
 * started run on 2022/08/16 at 10:49:12.313     

           -------------------------------------------------
          |                Calculation Setup                |
           -------------------------------------------------

          program call               : xtb -c 0 -u 0 input.xyz --hess
          coordinate file            : input.xyz
          omp threads                :                     8
          number of atoms            :                     2
          number of electrons        :                    10
          charge                     :                     0
          spin                       :                   0.0
          first test random number   :      0.69016776683939


########################################################################
# WARNING! Please study the warnings concerning your input carefully
#  - XTBHOME is not set, using HOME instead
#  - XTBPATH is not set, using XTBHOME instead
########################################################################

           ------------------------------------------------- 
          |                 G F N 2 - x T B                 |
          | Geometry, Frequencies, Noncovalent interactions |
          |            JCTC 2019 parametrisation            |
           ------------------------------------------------- 
             k(s)              :                1.8500
             k(p)              :                2.2300
             k(d)              :                2.2300
             k(f)              :                2.0000
             kEN (H0ij)        :               -2.0000
             D4 a1             :                0.5200
             D4 a2             :                5.0000
             D4 s6             :                1.0000
             D4 s8             :                2.7000
             D4 s9             :                5.0000
             alphaj            :                2.0000

  Z AO/shell   Hii/eV     exponent
  7     Wed Apr 25 08:07:45 CEST 2018   EN: 3.040 GM2: 0.461  GM3:-0.0640  RAES: 1.90
     2s    -16.686243    2.339881
     2p    -12.523956    2.014332

           ------------------------------------------------- 
          |        Self-Consistent Charge Iterations        |
           ------------------------------------------------- 

          ...................................................
          :                      SETUP                      :
          :.................................................:
          :  # basis functions                   8          :
          :  # atomic orbitals                   8          :
          :  # shells                            4          :
          :  # electrons                        10          :
          :  max. iterations                   250          :
          :  Hamiltonian                  GFN2-xTB          :
          :  restarted?                      false          :
          :  GBSA solvation                  false          :
          :  PC potential                    false          :
          :  electronic temp.          300.0000000     K    :
          :  accuracy                    1.0000000          :
          :  -> integral cutoff          0.2500000E+02      :
          :  -> integral neglect         0.1000000E-07      :
          :  -> SCF convergence          0.1000000E-05 Eh   :
          :  -> wf. convergence          0.1000000E-03 e    :
          :  Broyden damping             0.4000000          :
          ...................................................

 iter      E             dE          RMSdq      gap      omega  full diag
   1     -5.6242605 -0.562426E+01  0.891E+00    3.44       0.0  T
   2     -5.6278403 -0.357982E-02  0.513E+00    2.91       1.0  T
   3     -5.6291223 -0.128199E-02  0.739E-01    2.24       1.0  T
   4     -5.6291409 -0.186376E-04  0.358E-02    2.29       2.0  T
   5     -5.6291410 -0.526415E-07  0.325E-04    2.29     217.3  T
   6     -5.6291410 -0.217693E-11  0.156E-04    2.29     451.9  T

   *** convergence criteria satisfied after 6 iterations ***

         #    Occupation            Energy/Eh            Energy/eV
      -------------------------------------------------------------
         1        2.0000           -0.6463954             -17.5893
         2        2.0000           -0.5766395             -15.6912
         3        2.0000           -0.5186024             -14.1119
         4        2.0000           -0.5186024             -14.1119
         5        2.0000           -0.4897806             -13.3276 (HOMO)
         6                         -0.4058059             -11.0425 (LUMO)
         7                         -0.4058059             -11.0425
         8                         -0.0538229              -1.4646
      -------------------------------------------------------------
                  HL-Gap            0.0839747 Eh            2.2851 eV
             Fermi-level           -0.4477932 Eh          -12.1851 eV

 SCC (total)                   0 d,  0 h,  0 min,  0.013 sec
 SCC setup                      ...        0 min,  0.000 sec (  0.438%)
 Dispersion                     ...        0 min,  0.000 sec (  0.130%)
 integral evaluation            ...        0 min,  0.011 sec ( 85.821%)
 zeroth order Hamiltonian       ...        0 min,  0.000 sec (  0.093%)
 iterations                     ...        0 min,  0.001 sec (  4.778%)
 molecular gradient             ...        0 min,  0.000 sec (  1.652%)
 printout                       ...        0 min,  0.001 sec (  6.896%)

         :::::::::::::::::::::::::::::::::::::::::::::::::::::
         ::                     SUMMARY                     ::
         :::::::::::::::::::::::::::::::::::::::::::::::::::::
         :: total energy              -5.622858884669 Eh    ::
         :: gradient norm              0.442504250248 Eh/a0 ::
         :: HOMO-LUMO gap              2.285067940905 eV    ::
         ::.................................................::
         :: SCC energy                -5.629140956451 Eh    ::
         :: -> isotropic ES            0.000903431427 Eh    ::
         :: -> anisotropic ES          0.000064493364 Eh    ::
         :: -> anisotropic XC          0.029943489028 Eh    ::
         :: -> dispersion             -0.000255690279 Eh    ::
         :: repulsion energy           0.006282071800 Eh    ::
         :: add. restraining           0.000000000000 Eh    ::
         :::::::::::::::::::::::::::::::::::::::::::::::::::::

           ------------------------------------------------- 
          |                Numerical Hessian                |
           ------------------------------------------------- 
step length          :   0.00500
SCC accuracy         :   0.30000
Hessian scale factor :   1.00000
frozen atoms in %    :   0.00000    0
RMS gradient         :   0.44250
#WARNING! Hessian on incompletely optimized geometry!

writing file <hessian>.

 vibrational frequencies (cm-1)
eigval :        0.00     0.00     0.00     0.00     0.00   663.30
           -------------------------------------------------
          |                Property Printout                |
           -------------------------------------------------

    * Orbital Energies and Occupations

         #    Occupation            Energy/Eh            Energy/eV
      -------------------------------------------------------------
         1        2.0000           -0.6463962             -17.5893
         2        2.0000           -0.5766394             -15.6912
         3        2.0000           -0.5186029             -14.1119
         4        2.0000           -0.5186029             -14.1119
         5        2.0000           -0.4897805             -13.3276 (HOMO)
         6                         -0.4058062             -11.0425 (LUMO)
         7                         -0.4058062             -11.0425
         8                         -0.0538232              -1.4646
      -------------------------------------------------------------
                  HL-Gap            0.0839744 Eh            2.2851 eV
             Fermi-level           -0.4477933 Eh          -12.1851 eV

     #   Z        covCN         q      C6AA      α(0)
     1   7 N      0.977    -0.000    20.961     6.589
     2   7 N      0.977     0.000    20.961     6.589

 Mol. C6AA /au·bohr⁶  :         83.844198
 Mol. C8AA /au·bohr⁸  :       1849.670375
 Mol. α(0) /au        :         13.177039


Wiberg/Mayer (AO) data.
largest (>0.10) Wiberg bond orders for each atom
          total WBO             WBO to atom ...
     1  N   3.000        N    2 3.000
     2  N   3.000        N    1 3.000

molecular dipole:
                 x           y           z       tot (Debye)
 q only:        0.000      -0.000       0.000
   full:        0.000      -0.000       0.000       0.000
molecular quadrupole (traceless):
                xx          xy          yy          xz          yz          zz
 q only:       -0.000       0.000       0.000      -0.000       0.000      -0.000
  q+dip:        0.065      -0.020      -0.104       0.157      -0.019       0.039
   full:       -0.362       0.113       0.581      -0.882       0.104      -0.219

           -------------------------------------------------
          |               Frequency Printout                |
           -------------------------------------------------
 vibrational frequencies (cm-1)
eigval :        0.00     0.00     0.00     0.00     0.00   663.30
 reduced masses (amu)
   1: 14.01   2: 14.01   3: 14.01   4: 14.01   5: 14.01   6: 14.01
 IR intensities (amu)
   1:  0.00   2:  0.00   3:  0.00   4:  0.00   5:  0.00   6:  0.00
 Raman intensities (amu)
   1:  0.00   2:  0.00   3:  0.00   4:  0.00   5:  0.00   6:  0.00
 output can be read by thermo (or use thermo option).
 writing <g98.out> molden fake output.
 recommended (thermochemical) frequency scaling factor: 1.0
           -------------------------------------------------
          |             Thermodynamic Functions             |
           -------------------------------------------------

Molecule has the following symmetry elements: (i) (Cinf) (C2) 2*(sigma) 
It seems to be the Dinfh point group
din symmetry found (for desy threshold:  0.10E+00) used in thermo

          ...................................................
          :                      SETUP                      :
          :.................................................:
          :  # frequencies                           1      :
          :  # imaginary freq.                       0      :
          :  linear?                              true      :
          :  only rotor calc.                    false      :
          :  symmetry                              din      :
          :  rotational number                       2      :
          :  scaling factor                  1.0000000      :
          :  rotor cutoff                   50.0000000 cm⁻¹ :
          :  imag. cutoff                  -20.0000000 cm⁻¹ :
          :.................................................:

    mode    ω/cm⁻¹     T·S(HO)/kcal·mol⁻¹    T·S(FR)/kcal·mol⁻¹   T·S(vib)
   ------------------------------------------------------------------------
   ------------------------------------------------------------------------

   temp. (K)  partition function   enthalpy   heat capacity  entropy
                                   cal/mol     cal/K/mol   cal/K/mol   J/K/mol
 298.15  VIB   1.04                   80.519      0.901      0.353
         ROT   86.8                  592.502      1.987     10.857
         INT   90.5                  673.020      2.888     11.210
         TR   0.143E+27             1481.254      4.968     35.909
         TOT                        2154.2742     7.8565    47.1189   197.1455

       T/K    H(0)-H(T)+PV         H(T)/Eh          T*S/Eh         G(T)/Eh
   ------------------------------------------------------------------------
    298.15    0.343305E-02    0.494416E-02    0.223877E-01   -0.174435E-01
   ------------------------------------------------------------------------

         :::::::::::::::::::::::::::::::::::::::::::::::::::::
         ::                  THERMODYNAMIC                  ::
         :::::::::::::::::::::::::::::::::::::::::::::::::::::
         :: total free energy          -5.640302434516 Eh   ::
         ::.................................................::
         :: total energy               -5.622858884669 Eh   ::
         :: zero point energy           0.001511102494 Eh   ::
         :: G(RRHO) w/o ZPVE           -0.018954652340 Eh   ::
         :: G(RRHO) contrib.           -0.017443549847 Eh   ::
         :::::::::::::::::::::::::::::::::::::::::::::::::::::

           -------------------------------------------------
          | TOTAL ENERGY               -5.622858884669 Eh   |
          | TOTAL ENTHALPY             -5.617914727723 Eh   |
          | TOTAL FREE ENERGY          -5.640302434516 Eh   |
          | GRADIENT NORM               0.442502801764 Eh/α |
          | HOMO-LUMO GAP               2.285058447733 eV   |
           -------------------------------------------------

########################################################################
# WARNING! Some non-fatal runtime exceptions were caught, please check:
#  - Hessian on incompletely optimized geometry!
########################################################################


------------------------------------------------------------------------
 * finished run on 2022/08/16 at 10:49:12.368     
------------------------------------------------------------------------
 total:
 * wall-time:     0 d,  0 h,  0 min,  0.055 sec
 *  cpu-time:     0 d,  0 h,  0 min,  0.289 sec
 * ratio c/w:     5.289 speedup
 SCF:
 * wall-time:     0 d,  0 h,  0 min,  0.013 sec
 *  cpu-time:     0 d,  0 h,  0 min,  0.080 sec
 * ratio c/w:     5.996 speedup
 numerical hessian:
 * wall-time:     0 d,  0 h,  0 min,  0.005 sec
 *  cpu-time:     0 d,  0 h,  0 min,  0.031 sec
 * ratio c/w:     5.993 speedup

