2
 energy: -0.982685550933 gnorm: 0.000816912160 xtb: 6.5.1 (579679a)
H           -0.57113041191533        0.78327203697162        0.00000062657317
H            0.20489889201376        0.83630988063186       -0.00000217485475
