      -----------------------------------------------------------      
     |                   =====================                   |     
     |                           x T B                           |     
     |                   =====================                   |     
     |                         S. Grimme                         |     
     |          Mulliken Center for Theoretical Chemistry        |     
     |                    University of Bonn                     |     
      -----------------------------------------------------------      

   * xtb version 6.5.0 (746241f) compiled by 'ehlert@majestix' on 2022-05-15

   xtb is free software: you can redistribute it and/or modify it under
   the terms of the GNU Lesser General Public License as published by
   the Free Software Foundation, either version 3 of the License, or
   (at your option) any later version.
   
   xtb is distributed in the hope that it will be useful,
   but WITHOUT ANY WARRANTY; without even the implied warranty of
   MERCHANTABILITY or FITNESS FOR A PARTICULAR PURPOSE.  See the
   GNU Lesser General Public License for more details.
   
   Cite this work as:
   * C. Bannwarth, E. Caldeweyher, S. Ehlert, A. Hansen, P. Pracht,
     J. Seibert, S. Spicher, S. Grimme, WIREs Comput. Mol. Sci., 2020, 11,
     e01493. DOI: 10.1002/wcms.1493
   
   for GFN2-xTB:
   * C. Bannwarth, S. Ehlert and S. Grimme., J. Chem. Theory Comput., 2019,
     15, 1652-1671. DOI: 10.1021/acs.jctc.8b01176
   for GFN1-xTB:
   * S. Grimme, C. Bannwarth, P. Shushkov, J. Chem. Theory Comput., 2017,
     13, 1989-2009. DOI: 10.1021/acs.jctc.7b00118
   for GFN0-xTB:
   * P. Pracht, E. Caldeweyher, S. Ehlert, S. Grimme, ChemRxiv, 2019, preprint.
     DOI: 10.26434/chemrxiv.8326202.v1
   for GFN-FF:
   * S. Spicher and S. Grimme, Angew. Chem. Int. Ed., 2020, 59, 15665-15673.
     DOI: 10.1002/anie.202004239
   
   for ALPB and GBSA implicit solvation:
   * S. Ehlert, M. Stahn, S. Spicher, S. Grimme, J. Chem. Theory Comput.,
     2021, 17, 4250-4261. DOI: 10.1021/acs.jctc.1c00471
   
   for DFT-D4:
   * E. Caldeweyher, C. Bannwarth and S. Grimme, J. Chem. Phys., 2017,
     147, 034112. DOI: 10.1063/1.4993215
   * E. Caldeweyher, S. Ehlert, A. Hansen, H. Neugebauer, S. Spicher,
     C. Bannwarth and S. Grimme, J. Chem. Phys., 2019, 150, 154122.
     DOI: 10.1063/1.5090222
   * E. Caldeweyher, J.-M. Mewes, S. Ehlert and S. Grimme, Phys. Chem. Chem. Phys.
     2020, 22, 8499-8512. DOI: 10.1039/D0CP00502A
   
   for sTDA-xTB:
   * S. Grimme and C. Bannwarth, J. Chem. Phys., 2016, 145, 054103.
     DOI: 10.1063/1.4959605
   
   in the mass-spec context:
   * V. Asgeirsson, C. Bauer and S. Grimme, Chem. Sci., 2017, 8, 4879.
     DOI: 10.1039/c7sc00601b
   * J. Koopman and S. Grimme, ACS Omega 2019, 4, 12, 15120-15133.
     DOI: 10.1021/acsomega.9b02011
   
   for metadynamics refer to:
   * S. Grimme, J. Chem. Theory Comput., 2019, 155, 2847-2862
     DOI: 10.1021/acs.jctc.9b00143
   
   for SPH calculations refer to:
   * S. Spicher and S. Grimme, J. Chem. Theory Comput., 2021, 17, 1701-1714
     DOI: 10.1021/acs.jctc.0c01306
   
   with help from (in alphabetical order)
   P. Atkinson, C. Bannwarth, F. Bohle, G. Brandenburg, E. Caldeweyher
   M. Checinski, S. Dohm, S. Ehlert, S. Ehrlich, I. Gerasimov, C. Hölzer
   A. Katbashev, J. Koopman, C. Lavigne, S. Lehtola, F. März, M. Müller,
   F. Musil, H. Neugebauer, J. Pisarek, C. Plett, P. Pracht, F. Pultar,
   J. Seibert, P. Shushkov, S. Spicher, M. Stahn, M. Steiner, T. Strunk,
   J. Stückrath, T. Rose, and J. Unsleber
   
 * started run on 2022/07/14 at 15:23:25.186     

           -------------------------------------------------
          |                Calculation Setup                |
           -------------------------------------------------

          program call               : xtb -c 0 -u 0 xtbopt.xyz --opt normal
          coordinate file            : xtbopt.xyz
          omp threads                :                    16

   ID    Z sym.   atoms
    1    8 O      1
    2    1 H      2, 3

           -------------------------------------------------
          |                 G F N 2 - x T B                 |
           -------------------------------------------------

        Reference                      10.1021/acs.jctc.8b01176
      * Hamiltonian:
        H0-scaling (s, p, d)           1.850000    2.230000    2.230000
        zeta-weighting                 0.500000
      * Dispersion:
        s8                             2.700000
        a1                             0.520000
        a2                             5.000000
        s9                             5.000000
      * Repulsion:
        kExp                           1.500000    1.000000
        rExp                           1.000000
      * Coulomb:
        alpha                          2.000000
        third order                    shell-resolved
        anisotropic                    true
        a3                             3.000000
        a5                             4.000000
        cn-shift                       1.200000
        cn-exp                         4.000000
        max-rad                        5.000000

q/qsh data taken from xtbrestart
CAMM data taken from xtbrestart

          ...................................................
          :                      SETUP                      :
          :.................................................:
          :  # basis functions                   6          :
          :  # atomic orbitals                   6          :
          :  # shells                            4          :
          :  # electrons                         8          :
          :  max. iterations                   250          :
          :  Hamiltonian                  GFN2-xTB          :
          :  restarted?                       true          :
          :  GBSA solvation                  false          :
          :  PC potential                    false          :
          :  electronic temp.          300.0000000     K    :
          :  accuracy                    1.0000000          :
          :  -> integral cutoff          0.2500000E+02      :
          :  -> integral neglect         0.1000000E-07      :
          :  -> SCF convergence          0.1000000E-05 Eh   :
          :  -> wf. convergence          0.1000000E-03 e    :
          :  Broyden damping             0.4000000          :
          ...................................................

 iter      E             dE          RMSdq      gap      omega  full diag
   1     -5.1049482 -0.510495E+01  0.770E-12   14.39       0.0  T
   2     -5.1049482  0.444089E-14  0.468E-12   14.39  100000.0  T
   3     -5.1049482  0.000000E+00  0.258E-13   14.39  100000.0  T

   *** convergence criteria satisfied after 3 iterations ***

         #    Occupation            Energy/Eh            Energy/eV
      -------------------------------------------------------------
         1        2.0000           -0.6800977             -18.5064
         2        2.0000           -0.5683192             -15.4648
         3        2.0000           -0.5108672             -13.9014
         4        2.0000           -0.4463900             -12.1469 (HOMO)
         5                          0.0825955               2.2475 (LUMO)
         6                          0.2517299               6.8499
      -------------------------------------------------------------
                  HL-Gap            0.5289855 Eh           14.3944 eV
             Fermi-level           -0.1818972 Eh           -4.9497 eV

 SCC (total)                   0 d,  0 h,  0 min,  0.001 sec
 SCC setup                      ...        0 min,  0.000 sec ( 10.742%)
 Dispersion                     ...        0 min,  0.000 sec (  2.562%)
 classical contributions        ...        0 min,  0.000 sec (  0.873%)
 integral evaluation            ...        0 min,  0.000 sec ( 12.111%)
 iterations                     ...        0 min,  0.000 sec ( 52.489%)
 molecular gradient             ...        0 min,  0.000 sec ( 14.760%)
 printout                       ...        0 min,  0.000 sec (  5.240%)

         :::::::::::::::::::::::::::::::::::::::::::::::::::::
         ::                     SUMMARY                     ::
         :::::::::::::::::::::::::::::::::::::::::::::::::::::
         :: total energy              -5.070544427123 Eh    ::
         :: gradient norm              0.000183139240 Eh/a0 ::
         :: HOMO-LUMO gap             14.394428286214 eV    ::
         ::.................................................::
         :: SCC energy                -5.104948196756 Eh    ::
         :: -> isotropic ES            0.031459253067 Eh    ::
         :: -> anisotropic ES          0.000394697782 Eh    ::
         :: -> anisotropic XC         -0.000882938940 Eh    ::
         :: -> dispersion             -0.000141081696 Eh    ::
         :: repulsion energy           0.034403769607 Eh    ::
         :: add. restraining           0.000000000000 Eh    ::
         :: total charge              -0.000000000000 e     ::
         :::::::::::::::::::::::::::::::::::::::::::::::::::::

      ----------------------------------------------------------- 
     |                   =====================                   |
     |                        A N C O P T                        |
     |                   =====================                   |
     |               Approximate Normal Coordinate               |
     |                Rational Function Optimizer                |
      ----------------------------------------------------------- 

          ...................................................
          :                      SETUP                      :
          :.................................................:
          :   optimization level            normal          :
          :   max. optcycles                   200          :
          :   ANC micro-cycles                  20          :
          :   degrees of freedom                 3          :
          :.................................................:
          :   RF solver                   davidson          :
          :   write xtbopt.log                true          :
          :   linear?                        false          :
          :   energy convergence         0.5000000E-05 Eh   :
          :   grad. convergence          0.1000000E-02 Eh/α :
          :   maximium RF displ.         1.0000000          :
          :   Hlow (freq-cutoff)         0.1000000E-01      :
          :   Hmax (freq-cutoff)         5.0000000          :
          :   S6 in model hess.         20.0000000          :
          ...................................................

generating ANC from model Hessian ...
Using Lindh-Hessian (1995)
 Shifting diagonal of input Hessian by   0.000000000000000E+000
 Lowest  eigenvalues of input Hessian
    0.000000    0.000000    0.000000    0.000000    0.000000    0.000000
    0.303369    1.207273    1.432461
 Highest eigenvalues
    0.000000    0.000000    0.000000    0.303369    1.207273    1.432461
 

........................................................................
.............................. CYCLE    1 ..............................
........................................................................
   1     -5.1049482 -0.510495E+01  0.941E-14   14.39       0.0  T
   2     -5.1049482  0.177636E-14  0.763E-14   14.39  100000.0  T
   3     -5.1049482 -0.266454E-14  0.501E-14   14.39  100000.0  T
     SCC iter.                  ...        0 min,  0.000 sec
     gradient                   ...        0 min,  0.000 sec
 * total energy  :    -5.0705444 Eh     change        0.0000000E+00 Eh
   gradient norm :     0.0001831 Eh/α   predicted     0.0000000E+00 (    NaN%)
   displ. norm   :     0.0002921 α      lambda       -0.3316948E-07
   maximum displ.:     0.0002225 α      in ANC's #2, #1, #3, ...

........................................................................
.............................. CYCLE    2 ..............................
........................................................................
   1     -5.1049078 -0.510491E+01  0.111E-03   14.39       0.0  T
   2     -5.1049078 -0.187586E-09  0.611E-04   14.39      94.5  T
   3     -5.1049078 -0.329194E-10  0.125E-04   14.39     462.3  T
     SCC iter.                  ...        0 min,  0.000 sec
     gradient                   ...        0 min,  0.000 sec
 * total energy  :    -5.0705444 Eh     change       -0.1974000E-07 Eh
   gradient norm :     0.0000262 Eh/α   predicted    -0.1569799E-07 ( -20.48%)
   displ. norm   :     0.0000715 α      lambda       -0.2146747E-09
   maximum displ.:     0.0000688 α      in ANC's #1, #2, #3, ...

   *** GEOMETRY OPTIMIZATION CONVERGED AFTER 2 ITERATIONS ***

------------------------------------------------------------------------
 total energy gain   :        -0.0000000 Eh       -0.0000 kcal/mol
 total RMSD          :         0.0001686 a0        0.0001 Å
 total power (kW/mol):        -0.0000259 (step)   -0.0430 (real)
------------------------------------------------------------------------

 ANCopt (total)                0 d,  0 h,  0 min,  0.001 sec
 optimizer setup                ...        0 min,  0.000 sec (  4.874%)
 model hessian                  ...        0 min,  0.000 sec (  3.695%)
 ANC generation                 ...        0 min,  0.000 sec (  3.125%)
 coordinate transformation      ...        0 min,  0.000 sec (  0.413%)
 single point calculation       ...        0 min,  0.001 sec ( 69.556%)
 optimization log               ...        0 min,  0.000 sec (  4.304%)
 hessian update                 ...        0 min,  0.000 sec (  0.491%)
 rational function              ...        0 min,  0.000 sec (  6.525%)

================
 final structure:
================
3
 xtb: 6.5.0 (746241f)
O           -2.21933360430529        1.17843592034848       -0.01204555765152
H           -1.40633041631673        1.43319887413994        0.42868027409283
H           -2.65644597937798        0.53419520551158        0.54831528355869
 
 Bond Distances (Angstroems)
 ---------------------------
O1-H2=0.9592         O1-H3=0.9592         H2-O1=0.9592         H3-O1=0.9592         
 O  H  Rav=0.9592 sigma=0.0000  Rmin=0.9592  Rmax=0.9592     2
 
 selected bond angles (degree)
 --------------------
H3-O1-H2=107.23                
 
 selected dihedral angles (degree)
 ---------------------------------

           -------------------------------------------------
          |                Final Singlepoint                |
           -------------------------------------------------

          ...................................................
          :                      SETUP                      :
          :.................................................:
          :  # basis functions                   6          :
          :  # atomic orbitals                   6          :
          :  # shells                            4          :
          :  # electrons                         8          :
          :  max. iterations                   250          :
          :  Hamiltonian                  GFN2-xTB          :
          :  restarted?                      false          :
          :  GBSA solvation                  false          :
          :  PC potential                    false          :
          :  electronic temp.          300.0000000     K    :
          :  accuracy                    1.0000000          :
          :  -> integral cutoff          0.2500000E+02      :
          :  -> integral neglect         0.1000000E-07      :
          :  -> SCF convergence          0.1000000E-05 Eh   :
          :  -> wf. convergence          0.1000000E-03 e    :
          :  Broyden damping             0.4000000          :
          ...................................................

 iter      E             dE          RMSdq      gap      omega  full diag
   1     -5.1049078 -0.510491E+01  0.267E-05   14.39       0.0  T
   2     -5.1049078 -0.275335E-13  0.171E-05   14.39    3386.2  T
   3     -5.1049078 -0.195399E-13  0.620E-07   14.39   93075.0  T

   *** convergence criteria satisfied after 3 iterations ***

         #    Occupation            Energy/Eh            Energy/eV
      -------------------------------------------------------------
         1        2.0000           -0.6800790             -18.5059
         2        2.0000           -0.5683075             -15.4644
         3        2.0000           -0.5108639             -13.9013
         4        2.0000           -0.4463835             -12.1467 (HOMO)
         5                          0.0823956               2.2421 (LUMO)
         6                          0.2514733               6.8429
      -------------------------------------------------------------
                  HL-Gap            0.5287791 Eh           14.3888 eV
             Fermi-level           -0.1819939 Eh           -4.9523 eV

 SCC (total)                   0 d,  0 h,  0 min,  0.000 sec
 SCC setup                      ...        0 min,  0.000 sec ( 10.983%)
 Dispersion                     ...        0 min,  0.000 sec (  2.063%)
 classical contributions        ...        0 min,  0.000 sec (  1.274%)
 integral evaluation            ...        0 min,  0.000 sec ( 13.228%)
 iterations                     ...        0 min,  0.000 sec ( 39.502%)
 molecular gradient             ...        0 min,  0.000 sec ( 21.117%)
 printout                       ...        0 min,  0.000 sec (  8.677%)

         :::::::::::::::::::::::::::::::::::::::::::::::::::::
         ::                     SUMMARY                     ::
         :::::::::::::::::::::::::::::::::::::::::::::::::::::
         :: total energy              -5.070544446867 Eh    ::
         :: gradient norm              0.000026009867 Eh/a0 ::
         :: HOMO-LUMO gap             14.388810659693 eV    ::
         ::.................................................::
         :: SCC energy                -5.104907782675 Eh    ::
         :: -> isotropic ES            0.031459300162 Eh    ::
         :: -> anisotropic ES          0.000395476807 Eh    ::
         :: -> anisotropic XC         -0.000881460096 Eh    ::
         :: -> dispersion             -0.000141084519 Eh    ::
         :: repulsion energy           0.034363335782 Eh    ::
         :: add. restraining           0.000000000000 Eh    ::
         :: total charge               0.000000000000 e     ::
         :::::::::::::::::::::::::::::::::::::::::::::::::::::

           -------------------------------------------------
          |                Property Printout                |
           -------------------------------------------------

    * Orbital Energies and Occupations

         #    Occupation            Energy/Eh            Energy/eV
      -------------------------------------------------------------
         1        2.0000           -0.6800790             -18.5059
         2        2.0000           -0.5683075             -15.4644
         3        2.0000           -0.5108639             -13.9013
         4        2.0000           -0.4463835             -12.1467 (HOMO)
         5                          0.0823956               2.2421 (LUMO)
         6                          0.2514733               6.8429
      -------------------------------------------------------------
                  HL-Gap            0.5287791 Eh           14.3888 eV
             Fermi-level           -0.1819939 Eh           -4.9523 eV

     #   Z          covCN         q      C6AA      α(0)
     1   8 O        1.611    -0.565    24.358     6.661
     2   1 H        0.805     0.282     0.776     1.384
     3   1 H        0.805     0.282     0.776     1.384

 Mol. C6AA /au·bohr⁶  :         44.535255
 Mol. C8AA /au·bohr⁸  :        795.736536
 Mol. α(0) /au        :          9.429122


Wiberg/Mayer (AO) data.
largest (>0.10) Wiberg bond orders for each atom

 ---------------------------------------------------------------------------
     #   Z sym  total        # sym  WBO       # sym  WBO       # sym  WBO
 ---------------------------------------------------------------------------
     1   8 O    1.840 --     3 H    0.920     2 H    0.920
     2   1 H    0.920 --     1 O    0.920
     3   1 H    0.920 --     1 O    0.920
 ---------------------------------------------------------------------------

Topologies differ in total number of bonds
Writing topology from bond orders to xtbtopo.mol

molecular dipole:
                 x           y           z       tot (Debye)
 q only:        0.201      -0.208       0.534
   full:        0.288      -0.299       0.767       2.217
molecular quadrupole (traceless):
                xx          xy          yy          xz          yz          zz
 q only:       -0.846       2.717      -0.274      -3.196       1.415       1.121
  q+dip:       -1.273       3.789      -0.366      -4.613       2.086       1.639
   full:       -1.194       3.972      -0.431      -4.550       1.970       1.626

           -------------------------------------------------
          |                Geometry Summary                 |
           -------------------------------------------------

      molecular mass/u    :       18.0152864
   center of mass at/Å    :       -2.1983030       1.1566451       0.0439644
  moments of inertia/u·Å² :        0.5796844E+00   0.1202125E+01   0.1781810E+01
rotational constants/cm⁻¹ :        0.2908071E+02   0.1402319E+02   0.9460961E+01

 * 2 selected distances

     #   Z          #   Z                                           value/Å
     1   8 O        2   1 H                                       0.9592277 (max)
     1   8 O        3   1 H                                       0.9592277 (min)

 * 1 distinct bonds (by element types)

   Z      Z             #   av. dist./Å        max./Å        min./Å
   1 H    8 O           2     0.9592277     0.9592277     0.9592277


optimized geometry written to: xtbopt.xyz


           -------------------------------------------------
          | TOTAL ENERGY               -5.070544446867 Eh   |
          | GRADIENT NORM               0.000026009867 Eh/α |
          | HOMO-LUMO GAP              14.388810659693 eV   |
           -------------------------------------------------
########################################################################
[WARNING] Runtime exception occurred
-1- restart_readRestart: Number of electron missmatch in restart file.
########################################################################

------------------------------------------------------------------------
 * finished run on 2022/07/14 at 15:23:25.204     
------------------------------------------------------------------------
 total:
 * wall-time:     0 d,  0 h,  0 min,  0.018 sec
 *  cpu-time:     0 d,  0 h,  0 min,  0.258 sec
 * ratio c/w:    14.381 speedup
 SCF:
 * wall-time:     0 d,  0 h,  0 min,  0.001 sec
 *  cpu-time:     0 d,  0 h,  0 min,  0.015 sec
 * ratio c/w:    15.952 speedup
 ANC optimizer:
 * wall-time:     0 d,  0 h,  0 min,  0.002 sec
 *  cpu-time:     0 d,  0 h,  0 min,  0.030 sec
 * ratio c/w:    15.866 speedup

