3
 energy: -5.070544427123 gnorm: 0.000183139240 xtb: 6.5.0 (746241f)
O           -2.21931693005810        1.17841865603631       -0.01200117003491
H           -1.40641984355735        1.43314919333778        0.42866583755316
H           -2.65637322638455        0.53426215062591        0.54828533248175
3
 energy: -5.070544446863 gnorm: 0.000026244460 xtb: 6.5.0 (746241f)
O           -2.21933360430529        1.17843592034848       -0.01204555765152
H           -1.40633041631673        1.43319887413994        0.42868027409283
H           -2.65644597937798        0.53419520551158        0.54831528355869
