      -----------------------------------------------------------      
     |                   =====================                   |     
     |                           x T B                           |     
     |                   =====================                   |     
     |                         S. Grimme                         |     
     |          Mulliken Center for Theoretical Chemistry        |     
     |                    University of Bonn                     |     
      -----------------------------------------------------------      

   * xtb version 6.2.2 (655bc02) compiled by 'ehlert@majestix' on 2019-12-09

   This program is distributed in the hope that it will be useful,
   but WITHOUT ANY WARRANTY; without even the implied warranty of
   MERCHANTABILITY or FITNESS FOR A PARTICULAR PURPOSE.
   
   FOR NON-COMMERCIAL, ACADEMIA USE ONLY.
   
   Cite this work as:
   * S. Grimme, C. Bannwarth, P. Shushkov, J. Chem. Theory Comput., 2017,
     13, 1989-2009. DOI: 10.1021/acs.jctc.7b00118
   * C. Bannwarth, S. Ehlert and S. Grimme., J. Chem. Theory Comput., 2019,
     15, 1652-1671. DOI: 10.1021/acs.jctc.8b01176
   * P. Pracht, E. Caldeweyher, S. Ehlert, S. Grimme, ChemRxiv, 2019, preprint.
     DOI: 10.26434/chemrxiv.8326202.v1
   
   for DFT-D4:
   * E. Caldeweyher, C. Bannwarth and S. Grimme, J. Chem. Phys., 2017,
     147, 034112. DOI: 10.1063/1.4993215
   * E. Caldeweyher, S. Ehlert, A. Hansen, H. Neugebauer, S. Spicher,
     C. Bannwarth and S. Grimme, J. Chem. Phys., 2019, 150, 154122.
     DOI: 10.1063/1.5090222
   
   for sTDA-xTB:
   * S. Grimme and C. Bannwarth, J. Chem. Phys., 2016, 145, 054103.
     DOI: 10.1063/1.4959605
   
   in the mass-spec context:
   * V. Asgeirsson, C. Bauer and S. Grimme, Chem. Sci., 2017, 8, 4879.
     DOI: 10.1039/c7sc00601b
   
   for metadynamics refer to:
   * S. Grimme, J. Chem. Theory Comput., 2019, 155, 2847-2862
     DOI: 10.1021/acs.jctc.9b00143
   
   with help from (in alphabetical order)
   C. Bannwarth, F. Bohle, G. Brandenburg, E. Caldeweyher, M. Checinski,
   S. Dohm, S. Ehlert, S. Ehrlich, F. März, H. Neugebauer, J. Pisarek,
   P. Pracht, P. Shushkov, and S. Spicher.
   
 * started run on 2022/07/20 at 09:54:45.358     

           -------------------------------------------------
          |                Calculation Setup                |
           -------------------------------------------------

          program call               : xtb -c 0 -u 0 input.xyz
          coordinate file            : input.xyz
          omp threads                :                     1
          number of atoms            :                    24
          number of electrons        :                    60
          charge                     :                     0
          spin                       :                   0.0
          first test random number   :      0.39318415029936


molecular fragmentation (1/2 indicates fragments):
111111111111222222222222
# atoms in fragment 1/2:    12    12
 fragment masses (1/2) :       78.11       78.11
CMA distance (Bohr)    :  10.582
constraining FC (au)   :  0.0500

########################################################################
# WARNING! Please study the warnings concerning your input carefully
#  - XTBHOME is not set, using HOME instead
#  - XTBPATH is not set, using XTBHOME instead
########################################################################

           ------------------------------------------------- 
          |                 G F N 2 - x T B                 |
          | Geometry, Frequencies, Noncovalent interactions |
          |            JCTC 2019 parametrisation            |
           ------------------------------------------------- 
             k(s)              :                1.8500
             k(p)              :                2.2300
             k(d)              :                2.2300
             k(f)              :                2.0000
             kEN (H0ij)        :               -2.0000
             D4 a1             :                0.5200
             D4 a2             :                5.0000
             D4 s6             :                1.0000
             D4 s8             :                2.7000
             D4 s9             :                5.0000
             alphaj            :                2.0000

  Z AO/shell   Hii/eV     exponent
  1     Wed Apr 25 08:07:45 CEST 2018   EN: 2.200 GM2: 0.406  GM3: 0.0800  RAES: 1.40
     1s    -10.707211    1.230000
  6     Wed Apr 25 08:07:45 CEST 2018   EN: 2.550 GM2: 0.538  GM3: 0.1500  RAES: 3.00
     2s    -13.970922    2.096432
     2p    -10.063292    1.800000

           ------------------------------------------------- 
          |        Self-Consistent Charge Iterations        |
           ------------------------------------------------- 

          ...................................................
          :                      SETUP                      :
          :.................................................:
          :  # basis functions                  60          :
          :  # atomic orbitals                  60          :
          :  # shells                           36          :
          :  # electrons                        60          :
          :  max. iterations                   250          :
          :  Hamiltonian                  GFN2-xTB          :
          :  restarted?                      false          :
          :  GBSA solvation                  false          :
          :  PC potential                    false          :
          :  electronic temp.          300.0000000     K    :
          :  accuracy                    1.0000000          :
          :  -> integral cutoff          0.2500000E+02      :
          :  -> integral neglect         0.1000000E-07      :
          :  -> SCF convergence          0.1000000E-05 Eh   :
          :  -> wf. convergence          0.1000000E-03 e    :
          :  Broyden damping             0.4000000          :
          ...................................................

 iter      E             dE          RMSdq      gap      omega  full diag
   1    -32.3614613 -0.323615E+02  0.483E+00    4.95       0.0  T
   2    -32.3924546 -0.309933E-01  0.289E+00    4.94       1.0  T
   3    -32.3932368 -0.782239E-03  0.502E-01    4.93       1.0  T
   4    -32.3938449 -0.608048E-03  0.507E-02    4.93       1.0  T
   5    -32.3938449 -0.596289E-07  0.621E-03    4.93       3.3  T
   6    -32.3938449 -0.113408E-07  0.781E-04    4.93      26.1  T
   7    -32.3938449 -0.870628E-10  0.408E-05    4.93     500.9  T

   *** convergence criteria satisfied after 7 iterations ***

         #    Occupation            Energy/Eh            Energy/eV
      -------------------------------------------------------------
         1        2.0000           -0.6402834             -17.4230
       ...           ...                  ...                  ...
        24        2.0000           -0.4203677             -11.4388
        25        2.0000           -0.4203654             -11.4387
        26        2.0000           -0.4203653             -11.4387
        27        2.0000           -0.4013212             -10.9205
        28        2.0000           -0.4013212             -10.9205
        29        2.0000           -0.4013099             -10.9202
        30        2.0000           -0.4013098             -10.9202 (HOMO)
        31                         -0.2200670              -5.9883 (LUMO)
        32                         -0.2200669              -5.9883
        33                         -0.2200586              -5.9881
        34                         -0.2200585              -5.9881
        35                         -0.0888392              -2.4174
       ...                                ...                  ...
        60                          0.6751664              18.3722
      -------------------------------------------------------------
                  HL-Gap            0.1812429 Eh            4.9319 eV
             Fermi-level           -0.3106884 Eh           -8.4543 eV

 SCC (total)                   0 d,  0 h,  0 min,  0.044 sec
 SCC setup                      ...        0 min,  0.000 sec (  0.780%)
 Dispersion                     ...        0 min,  0.000 sec (  0.949%)
 integral evaluation            ...        0 min,  0.018 sec ( 41.505%)
 zeroth order Hamiltonian       ...        0 min,  0.000 sec (  0.551%)
 iterations                     ...        0 min,  0.008 sec ( 18.785%)
 molecular gradient             ...        0 min,  0.015 sec ( 33.745%)
 printout                       ...        0 min,  0.002 sec (  3.568%)

         :::::::::::::::::::::::::::::::::::::::::::::::::::::
         ::                     SUMMARY                     ::
         :::::::::::::::::::::::::::::::::::::::::::::::::::::
         :: total energy             -31.759621967135 Eh    ::
         :: gradient norm              0.000688186864 Eh/a0 ::
         :: HOMO-LUMO gap              4.931869206199 eV    ::
         ::.................................................::
         :: SCC energy               -32.393844928850 Eh    ::
         :: -> isotropic ES            0.001603014048 Eh    ::
         :: -> anisotropic ES          0.005285888500 Eh    ::
         :: -> anisotropic XC          0.024751656976 Eh    ::
         :: -> dispersion             -0.016684534590 Eh    ::
         :: repulsion energy           0.633690896329 Eh    ::
         :: add. restraining           0.000000000000 Eh    ::
         :::::::::::::::::::::::::::::::::::::::::::::::::::::

           -------------------------------------------------
          |                Property Printout                |
           -------------------------------------------------

    * Orbital Energies and Occupations

         #    Occupation            Energy/Eh            Energy/eV
      -------------------------------------------------------------
         1        2.0000           -0.6402834             -17.4230
       ...           ...                  ...                  ...
        18        2.0000           -0.4752676             -12.9327
        19        2.0000           -0.4752652             -12.9326
        20        2.0000           -0.4752650             -12.9326
        21        2.0000           -0.4735005             -12.8846
        22        2.0000           -0.4734860             -12.8842
        23        2.0000           -0.4203679             -11.4388
        24        2.0000           -0.4203677             -11.4388
        25        2.0000           -0.4203654             -11.4387
        26        2.0000           -0.4203653             -11.4387
        27        2.0000           -0.4013212             -10.9205
        28        2.0000           -0.4013212             -10.9205
        29        2.0000           -0.4013099             -10.9202
        30        2.0000           -0.4013098             -10.9202 (HOMO)
        31                         -0.2200670              -5.9883 (LUMO)
        32                         -0.2200669              -5.9883
        33                         -0.2200586              -5.9881
        34                         -0.2200585              -5.9881
        35                         -0.0888392              -2.4174
        36                         -0.0888325              -2.4173
        37                          0.1189756               3.2375
        38                          0.1190142               3.2385
        39                          0.1386430               3.7727
        40                          0.1386578               3.7731
        41                          0.1744663               4.7475
       ...                                ...                  ...
        60                          0.6751664              18.3722
      -------------------------------------------------------------
                  HL-Gap            0.1812429 Eh            4.9319 eV
             Fermi-level           -0.3106884 Eh           -8.4543 eV

     #   Z        covCN         q      C6AA      α(0)
     1   1 H      0.926     0.029     2.605     2.524
     2   6 C      2.920    -0.029    28.716     8.788
     3   6 C      2.920    -0.029    28.716     8.788
     4   1 H      0.926     0.029     2.605     2.524
     5   6 C      2.920    -0.029    28.716     8.788
     6   1 H      0.926     0.029     2.605     2.524
     7   6 C      2.920    -0.029    28.716     8.788
     8   1 H      0.926     0.029     2.605     2.524
     9   6 C      2.920    -0.029    28.716     8.788
    10   1 H      0.926     0.029     2.605     2.524
    11   6 C      2.920    -0.029    28.716     8.788
    12   1 H      0.926     0.029     2.605     2.524
    13   1 H      0.926     0.029     2.605     2.524
    14   6 C      2.920    -0.029    28.716     8.788
    15   6 C      2.920    -0.029    28.716     8.788
    16   1 H      0.926     0.029     2.605     2.524
    17   6 C      2.920    -0.029    28.716     8.788
    18   1 H      0.926     0.029     2.605     2.524
    19   6 C      2.920    -0.029    28.716     8.788
    20   1 H      0.926     0.029     2.605     2.524
    21   6 C      2.920    -0.029    28.716     8.788
    22   1 H      0.926     0.029     2.605     2.524
    23   6 C      2.920    -0.029    28.716     8.788
    24   1 H      0.926     0.029     2.605     2.524

 Mol. C6AA /au·bohr⁶  :       6998.158308
 Mol. C8AA /au·bohr⁸  :     170648.740123
 Mol. α(0) /au        :        135.742139


Wiberg/Mayer (AO) data.
largest (>0.10) Wiberg bond orders for each atom
          total WBO             WBO to atom ...
     1  H   0.999        C    2 0.972
     2  C   3.993        C    3 1.441    C   11 1.441    H    1 0.972    C    7 0.114
     3  C   3.993        C    2 1.441    C    5 1.441    H    4 0.972    C    9 0.114
     4  H   0.999        C    3 0.972
     5  C   3.993        C    7 1.441    C    3 1.441    H    6 0.972    C   11 0.114
     6  H   0.999        C    5 0.972
     7  C   3.993        C    5 1.441    C    9 1.441    H    8 0.972    C    2 0.114
     8  H   0.999        C    7 0.972
     9  C   3.993        C   11 1.441    C    7 1.441    H   10 0.972    C    3 0.114
    10  H   0.999        C    9 0.972
    11  C   3.993        C    9 1.441    C    2 1.441    H   12 0.972    C    5 0.114
    12  H   0.999        C   11 0.972
    13  H   0.999        C   14 0.972
    14  C   3.993        C   15 1.441    C   23 1.441    H   13 0.972    C   19 0.114
    15  C   3.993        C   14 1.441    C   17 1.441    H   16 0.972    C   21 0.114
    16  H   0.999        C   15 0.972
    17  C   3.993        C   19 1.441    C   15 1.441    H   18 0.972    C   23 0.114
    18  H   0.999        C   17 0.972
    19  C   3.993        C   17 1.441    C   21 1.441    H   20 0.972    C   14 0.114
    20  H   0.999        C   19 0.972
    21  C   3.993        C   23 1.441    C   19 1.441    H   22 0.972    C   15 0.114
    22  H   0.999        C   21 0.972
    23  C   3.993        C   21 1.441    C   14 1.441    H   24 0.972    C   17 0.114
    24  H   0.999        C   23 0.972

molecular dipole:
                 x           y           z       tot (Debye)
 q only:        0.000       0.000      -0.000
   full:        0.000       0.000      -0.000       0.000
molecular quadrupole (traceless):
                xx          xy          yy          xz          yz          zz
 q only:        1.277       0.000       1.277       0.000      -0.000      -2.554
  q+dip:        5.392      -0.000       5.392       0.000      -0.000     -10.784
   full:        2.723      -0.000       2.723       0.000      -0.000      -5.447


           -------------------------------------------------
          | TOTAL ENERGY              -31.759621967135 Eh   |
          | GRADIENT NORM               0.000688186864 Eh/α |
          | HOMO-LUMO GAP               4.931869206199 eV   |
           -------------------------------------------------

------------------------------------------------------------------------
 * finished run on 2022/07/20 at 09:54:45.423     
------------------------------------------------------------------------
 total:
 * wall-time:     0 d,  0 h,  0 min,  0.065 sec
 *  cpu-time:     0 d,  0 h,  0 min,  0.058 sec
 * ratio c/w:     0.900 speedup
 SCF:
 * wall-time:     0 d,  0 h,  0 min,  0.044 sec
 *  cpu-time:     0 d,  0 h,  0 min,  0.043 sec
 * ratio c/w:     0.969 speedup

