[Molden Format]
[Title]
[Atoms] AU
C      1     6  0.25942028398568E+01 -0.36266937468689E+00  0.10242249864374E-01
C      2     6  0.16530709004887E+01  0.20786603215892E+01  0.27634622987357E-01
C      3     6 -0.93177734131415E+00  0.24844012438274E+01  0.18283074275211E-01
C      4     6 -0.25754916803574E+01  0.44881400165257E+00 -0.83909426817178E-02
C      5     6 -0.16343574032561E+01 -0.19925244855133E+01 -0.25772394106581E-01
C      6     6  0.95048490116644E+00 -0.23982604967879E+01 -0.16487809873891E-01
H      7     1  0.46112451028313E+01 -0.67929259858564E+00  0.17500866274424E-01
H      8     1  0.29357076324593E+01  0.36671114758053E+01  0.48457935790709E-01
H      9     1 -0.16661745487986E+01  0.43894588309915E+01  0.31849631871864E-01
H     10     1 -0.45925370186141E+01  0.76542088799457E+00 -0.15626263497525E-01
H     11     1 -0.29170109067691E+01 -0.35809620828378E+01 -0.46539369518573E-01
H     12     1  0.16848872541094E+01 -0.43033176283653E+01 -0.30002217250391E-01
[GTO]
           1 0
 s           4   1.00000000000000     
   51.0493630955799      -0.163120632101274     
   8.79112274068875      -0.199110245810007     
  0.706404222589298       0.318820477536558     
  0.269228134134116       0.127065041842404     
 p           4   1.00000000000000     
   5.82636561408000       0.737164515452096     
   1.51068960187200       0.682163716148503     
  0.532564832880000       0.357830539292537     
  0.212023236906000       5.398303027584788E-002
 
           2 0
 s           4   1.00000000000000     
   51.0493630955799      -0.163120632101274     
   8.79112274068875      -0.199110245810007     
  0.706404222589298       0.318820477536558     
  0.269228134134116       0.127065041842404     
 p           4   1.00000000000000     
   5.82636561408000       0.737164515452096     
   1.51068960187200       0.682163716148503     
  0.532564832880000       0.357830539292537     
  0.212023236906000       5.398303027584788E-002
 
           3 0
 s           4   1.00000000000000     
   51.0493630955799      -0.163120632101274     
   8.79112274068875      -0.199110245810007     
  0.706404222589298       0.318820477536558     
  0.269228134134116       0.127065041842404     
 p           4   1.00000000000000     
   5.82636561408000       0.737164515452096     
   1.51068960187200       0.682163716148503     
  0.532564832880000       0.357830539292537     
  0.212023236906000       5.398303027584788E-002
 
           4 0
 s           4   1.00000000000000     
   51.0493630955799      -0.163120632101274     
   8.79112274068875      -0.199110245810007     
  0.706404222589298       0.318820477536558     
  0.269228134134116       0.127065041842404     
 p           4   1.00000000000000     
   5.82636561408000       0.737164515452096     
   1.51068960187200       0.682163716148503     
  0.532564832880000       0.357830539292537     
  0.212023236906000       5.398303027584788E-002
 
           5 0
 s           4   1.00000000000000     
   51.0493630955799      -0.163120632101274     
   8.79112274068875      -0.199110245810007     
  0.706404222589298       0.318820477536558     
  0.269228134134116       0.127065041842404     
 p           4   1.00000000000000     
   5.82636561408000       0.737164515452096     
   1.51068960187200       0.682163716148503     
  0.532564832880000       0.357830539292537     
  0.212023236906000       5.398303027584788E-002
 
           6 0
 s           4   1.00000000000000     
   51.0493630955799      -0.163120632101274     
   8.79112274068875      -0.199110245810007     
  0.706404222589298       0.318820477536558     
  0.269228134134116       0.127065041842404     
 p           4   1.00000000000000     
   5.82636561408000       0.737164515452096     
   1.51068960187200       0.682163716148503     
  0.532564832880000       0.357830539292537     
  0.212023236906000       5.398303027584788E-002
 
           7 0
 s           3   1.00000000000000     
   3.37022769753360       0.273591105889083     
  0.613891182214980       0.264605406538605     
  0.166142911484160       8.246594753408230E-002
 
           8 0
 s           3   1.00000000000000     
   3.37022769753360       0.273591105889083     
  0.613891182214980       0.264605406538605     
  0.166142911484160       8.246594753408230E-002
 
           9 0
 s           3   1.00000000000000     
   3.37022769753360       0.273591105889083     
  0.613891182214980       0.264605406538605     
  0.166142911484160       8.246594753408230E-002
 
          10 0
 s           3   1.00000000000000     
   3.37022769753360       0.273591105889083     
  0.613891182214980       0.264605406538605     
  0.166142911484160       8.246594753408230E-002
 
          11 0
 s           3   1.00000000000000     
   3.37022769753360       0.273591105889083     
  0.613891182214980       0.264605406538605     
  0.166142911484160       8.246594753408230E-002
 
          12 0
 s           3   1.00000000000000     
   3.37022769753360       0.273591105889083     
  0.613891182214980       0.264605406538605     
  0.166142911484160       8.246594753408230E-002
 
[MO]
Sym=     1a
Ene=  -0.641655345079577     
Spin= Alpha
Occup=     2.00000000
           1 -0.268631749304020     
           2  0.100163124524482     
           3 -1.572292433744171E-002
           4  3.616223862558221E-004
           5 -0.268631648110067     
           6  6.369370137080199E-002
           7  7.887977479428253E-002
           8  1.035976550721383E-003
           9 -0.268630540018957     
          10 -3.646911216801694E-002
          11  9.460164360719128E-002
          12  6.718756120402898E-004
          13 -0.268629397716786     
          14 -0.100162841496981     
          15  1.572209982942704E-002
          16 -3.606177941685766E-004
          17 -0.268629596476004     
          18 -6.369439417510164E-002
          19 -7.887886634230244E-002
          20 -1.034126083289997E-003
          21 -0.268631242411028     
          22  3.646871582735132E-002
          23 -9.460186857836998E-002
          24 -6.757361306095677E-004
          25 -4.670316293170373E-002
          26 -4.670308539943688E-002
          27 -4.670283206884444E-002
          28 -4.670257543117672E-002
          29 -4.670259544237301E-002
          30 -4.670295632863489E-002
Sym=     2a
Ene=  -0.611492446119674     
Spin= Alpha
Occup=     2.00000000
           1  0.340070039069944     
           2 -1.189736586667860E-002
           3  7.419453006597071E-002
           4  6.116271371455501E-004
           5  0.313860881778376     
           6  5.730674197268372E-002
           7 -7.385897480270498E-002
           8 -3.823106537669713E-004
           9 -2.621132682091963E-002
          10  0.150922137373644     
          11  6.009240636906894E-002
          12  1.302680827542489E-003
          13 -0.340070238533519     
          14 -1.189840477595283E-002
          15  7.419280094935704E-002
          16  6.122088329407926E-004
          17 -0.313861271046996     
          18  5.730460439703913E-002
          19 -7.385825666929113E-002
          20 -3.811301673983026E-004
          21  2.620667331875671E-002
          22  0.150922695667846     
          23  6.009190043914633E-002
          24  1.302810640741538E-003
          25  0.107509092727363     
          26  9.922319180170766E-002
          27 -8.286272680457351E-003
          28 -0.107509071689654     
          29 -9.922345196530355E-002
          30  8.285176132291157E-003
Sym=     3a
Ene=  -0.611492409080914     
Spin= Alpha
Occup=     2.00000000
           1  0.166075329876140     
           2 -3.390322803669508E-002
           3 -0.142778883102140     
           4 -1.464391224855707E-003
           5 -0.211471204420445     
           6  0.114149847470656     
           7 -7.358414146581183E-002
           8 -9.157290148859753E-005
           9 -0.377547317947075     
          10 -1.980831481047662E-002
          11  2.003563644714762E-002
          12  7.981921197443355E-005
          13 -0.166076704064296     
          14 -3.390369676706444E-002
          15 -0.142778929355898     
          16 -1.463118584987084E-003
          17  0.211471681886870     
          18  0.114150406274116     
          19 -7.358395490198558E-002
          20 -9.316949057872500E-005
          21  0.377547431340149     
          22 -1.980903032330526E-002
          23  2.003504703408388E-002
          24  8.482216229497386E-005
          25  5.250311553441711E-002
          26 -6.685449811169993E-002
          27 -0.119357083020001     
          28 -5.250287250832138E-002
          29  6.685387569122252E-002
          30  0.119357115684148     
Sym=     4a
Ene=  -0.569002536231088     
Spin= Alpha
Occup=     2.00000000
           1  0.265605439762569     
           2  6.264100066433487E-002
           3 -0.125010084639123     
           4 -8.188742224086395E-004
           5 -0.246258771331661     
           6  6.384389245960809E-002
           7 -0.148387901135572     
           8 -1.022021956049193E-003
           9 -1.934674988424586E-002
          10 -0.237372127260122     
          11 -9.783613897855283E-002
          12 -2.079546382471184E-003
          13  0.265605617828588     
          14 -6.264060028652706E-002
          15  0.125009200866807     
          16  8.170276407349348E-004
          17 -0.246258053817953     
          18 -6.384399861730623E-002
          19  0.148386688429204     
          20  1.022814390541251E-003
          21 -1.934725181294944E-002
          22  0.237372078243304     
          23  9.783593261699702E-002
          24  2.078448058949402E-003
          25  0.151059441686827     
          26 -0.140056451876156     
          27 -1.100333095656303E-002
          28  0.151058571286820     
          29 -0.140054613220630     
          30 -1.100286528329515E-002
Sym=     5a
Ene=  -0.569002422810746     
Spin= Alpha
Occup=     2.00000000
           1  0.131006611386273     
           2  7.536262004777869E-002
           3  0.221681002110577     
           4  2.388139102269311E-003
           5  0.164516512307610     
           6  0.198036080004423     
           7 -9.521253806193249E-002
           8  1.337712225131280E-004
           9 -0.295524506269863     
          10  4.820138060766238E-002
          11 -7.832240328126268E-002
          12 -4.673658663982447E-004
          13  0.131008443512978     
          14 -7.536330812332469E-002
          15 -0.221681390013016     
          16 -2.384671069705341E-003
          17  0.164518458758468     
          18 -0.198036847297415     
          19  9.521236636445515E-002
          20 -1.307849456986723E-004
          21 -0.295524477422848     
          22 -4.820317460390494E-002
          23  7.832197003919331E-002
          24  4.658624517683384E-004
          25  7.450735205089030E-002
          26  9.356538927415291E-002
          27 -0.168074976349491     
          28  7.450968988163349E-002
          29  9.356803450926861E-002
          30 -0.168075044894713     
Sym=     6a
Ene=  -0.531183004392379     
Spin= Alpha
Occup=     2.00000000
           1  6.412480553114079E-002
           2  0.223410024447213     
           3 -3.506888070831699E-002
           4  8.065828154193602E-004
           5  6.412482996901687E-002
           6  0.142066991174738     
           7  0.175938023129897     
           8  2.308620289587318E-003
           9  6.412456184693728E-002
          10 -8.134240682129835E-002
          11  0.211005841218000     
          12  1.503254674726640E-003
          13  6.412465650640781E-002
          14 -0.223409193078781     
          15  3.506855783555338E-002
          16 -8.013093167227521E-004
          17  6.412507995326439E-002
          18 -0.142066505255344     
          19 -0.175937364591854     
          20 -2.302024990030764E-003
          21  6.412450309260248E-002
          22  8.134245015867661E-002
          23 -0.211006107799683     
          24 -1.499088813753130E-003
          25  0.188299335143359     
          26  0.188299340552449     
          27  0.188298843128440     
          28  0.188298618932253     
          29  0.188298825567774     
          30  0.188298949847902     
Sym=     7a
Ene=  -0.495003815395358     
Spin= Alpha
Occup=     2.00000000
           1  0.189611409364197     
           2  0.164641285475838     
           3 -2.584163307795049E-002
           4  5.913531931998478E-004
           5 -0.189611692202538     
           6 -0.104694030701452     
           7 -0.129656811810729     
           8 -1.703778819032024E-003
           9  0.189612868298341     
          10 -5.994494363001371E-002
          11  0.155495754843758     
          12  1.102759989418702E-003
          13 -0.189612551997842     
          14  0.164642116384967     
          15 -2.584089657371761E-002
          16  5.902038652031316E-004
          17  0.189612605254625     
          18 -0.104694969534420     
          19 -0.129656450163255     
          20 -1.696832652451754E-003
          21 -0.189612535046828     
          22 -5.994623556166050E-002
          23  0.155495109391379     
          24  1.106262728584252E-003
          25  0.234745616651939     
          26 -0.234745024616154     
          27  0.234742803087852     
          28 -0.234746696359444     
          29  0.234745678180408     
          30 -0.234742482776939     
Sym=     8a
Ene=  -0.489401917195625     
Spin= Alpha
Occup=     2.00000000
           1  9.375413376673025E-007
           2 -5.135819161644296E-002
           3 -0.327255791862585     
           4 -3.228621913665982E-003
           5 -1.308509771094924E-006
           6 -0.257745267130099     
           7  0.208114194587070     
           8  5.849266429710591E-004
           9  1.259695294981287E-006
          10  0.309100476336484     
          11  0.119138184453682     
          12  2.633927019964333E-003
          13 -1.227548092443089E-006
          14 -5.135718220842094E-002
          15 -0.327254500456544     
          16 -3.216935884541489E-003
          17  7.588755783453584E-007
          18 -0.257744305050503     
          19  0.208113581088038     
          20  5.946486241491962E-004
          21 -1.349140636502258E-006
          22  0.309100097778387     
          23  0.119140676087574     
          24  2.632001063681254E-003
          25  1.410420731001933E-006
          26 -1.355129684978366E-006
          27  1.476377679399665E-007
          28  4.782815178564691E-007
          29  4.390135301599960E-006
          30 -1.109163132449701E-006
Sym=     9a
Ene=  -0.476350288999335     
Spin= Alpha
Occup=     2.00000000
           1 -6.935579337314420E-002
           2  0.314862543118780     
           3 -9.180655214116734E-002
           4  5.980827175873525E-004
           5 -6.545774051242095E-002
           6  0.154100035159170     
           7  0.270151240097279     
           8  3.070199583270916E-003
           9  3.896692773982443E-003
          10 -7.897897310276218E-002
          11 -5.003417141327019E-002
          12 -1.005047026645084E-003
          13  6.935684237162151E-002
          14  0.314861153050368     
          15 -9.180518615756438E-002
          16  5.895608165836034E-004
          17  6.545807886537362E-002
          18  0.154100641330818     
          19  0.270149793856560     
          20  3.057728554197451E-003
          21 -3.897875559377877E-003
          22 -7.898090557689695E-002
          23 -5.003018308852936E-002
          24 -1.006542846132283E-003
          25  0.254704814912182     
          26  0.240391530540169     
          27 -1.431654550782222E-002
          28 -0.254702855636801     
          29 -0.240390630149398     
          30  1.431208724101500E-002
Sym=    10a
Ene=  -0.476350104887578     
Spin= Alpha
Occup=     2.00000000
           1 -3.554402885838562E-002
           2  0.177344409879705     
           3  5.486500864462864E-002
           4  1.498319371366518E-003
           5  4.229492621989279E-002
           6 -0.184607734489851     
           7 -0.105874461804509     
           8 -1.780831748635272E-003
           9  7.783447593483468E-002
          10  0.135590657238259     
          11 -0.338968368746704     
          12 -2.279578780063083E-003
          13  3.554360534169531E-002
          14  0.177346652046027     
          15  5.486536300374776E-002
          16  1.495221713960471E-003
          17 -4.229432348558271E-002
          18 -0.184609101750854     
          19 -0.105876091525202     
          20 -1.772171387017856E-003
          21 -7.783451770253871E-002
          22  0.135591396819890     
          23 -0.338967960700232     
          24 -2.276964425048604E-003
          25  0.130522658175754     
          26 -0.155314912816694     
          27 -0.285845094075635     
          28 -0.130524557600158     
          29  0.155316747719839     
          30  0.285845020469674     
Sym=    11a
Ene=  -0.474754485833410     
Spin= Alpha
Occup=     2.00000000
           1  1.852241167762951E-005
           2  1.626777834120388E-003
           3  3.147793028422866E-003
           4 -0.340578760749502     
           5  4.316351814993818E-005
           6  1.583738296511503E-003
           7  2.927777426050105E-003
           8 -0.340580918371574     
           9  2.618306104304006E-005
          10  1.794592427052300E-003
          11  2.996942026871982E-003
          12 -0.340578195436621     
          13 -1.852584495493277E-005
          14  1.616456929406200E-003
          15  3.142797312226622E-003
          16 -0.340576923256008     
          17 -4.232914687769107E-005
          18  1.576422652058534E-003
          19  2.922533895524274E-003
          20 -0.340579276694913     
          21 -1.631248835890436E-005
          22  1.790653005207031E-003
          23  2.995731668908815E-003
          24 -0.340578896796431     
          25 -7.332991861950741E-005
          26 -1.588161372928016E-004
          27 -8.675437152118245E-005
          28  7.854006973046999E-005
          29  1.590163849947804E-004
          30  8.599087683010833E-005
Sym=    12a
Ene=  -0.421397365893037     
Spin= Alpha
Occup=     2.00000000
           1 -1.419533221732178E-002
           2  0.269190045922531     
           3  7.759000379401451E-002
           4  2.054939925457421E-003
           5  1.210670558670443E-002
           6 -0.285785802260340     
           7 -4.754811823621457E-002
           8 -1.853407302541125E-003
           9  2.090443769205884E-003
          10  0.303506027527297     
          11  7.693685117976894E-002
          12  2.247225309666607E-003
          13 -1.419536793061644E-002
          14 -0.269189399429554     
          15 -7.758989774854050E-002
          16 -2.042061658951128E-003
          17  1.210571937819797E-002
          18  0.285783219505233     
          19  4.754602748401517E-002
          20  1.844959777862150E-003
          21  2.087822504508447E-003
          22 -0.303504366649956     
          23 -7.693924181625253E-002
          24 -2.240994438514647E-003
          25  0.296167228785181     
          26 -0.252583155059182     
          27 -4.358532564040139E-002
          28  0.296167173594711     
          29 -0.252581619174999     
          30 -4.358479659005023E-002
Sym=    13a
Ene=  -0.421396994078144     
Spin= Alpha
Occup=     2.00000000
           1 -5.782364150184811E-003
           2  5.713980630941256E-002
           3 -0.303122264198632     
           4 -2.485482892219298E-003
           5 -9.401449762538292E-003
           6 -8.718586401666438E-002
           7  0.286528565821647     
           8  2.146218010958996E-003
           9  1.518497991437212E-002
          10  5.779142163948402E-002
          11 -0.268809182884343     
          12 -2.128121746140217E-003
          13 -5.784447399005183E-003
          14 -5.714390912047288E-002
          15  0.303125642410263     
          16  2.481752707214582E-003
          17 -9.402448284528204E-003
          18  8.718566451723672E-002
          19 -0.286533535966742     
          20 -2.142911381745335E-003
          21  1.518560367906098E-002
          22 -5.779295774102421E-002
          23  0.268809613535299     
          24  2.130895780919208E-003
          25  0.120663867213562     
          26  0.196155407380621     
          27 -0.316820834877638     
          28  0.120665644218213     
          29  0.196156933731218     
          30 -0.316821533034276     
Sym=    14a
Ene=  -0.402525052739821     
Spin= Alpha
Occup=     2.00000000
           1 -1.631953108478131E-006
           2 -5.792023583207441E-004
           3 -1.065330894737601E-003
           4  0.117453158294201     
           5 -3.909546716805633E-006
           6  1.966892523280000E-003
           7  3.563430071047825E-003
           8 -0.393025056365157     
           9  3.751604040629036E-006
          10  2.581638124737386E-003
          11  4.621976132600004E-003
          12 -0.510479531772452     
          13  3.308416853553677E-007
          14  5.759902060408027E-004
          15  1.063667083064181E-003
          16 -0.117456404422567     
          17 -2.163747371097885E-006
          18 -1.951051332681558E-003
          19 -3.554844684543831E-003
          20  0.393027128237151     
          21 -8.217564026722325E-006
          22 -2.581867364451479E-003
          23 -4.620497114086330E-003
          24  0.510481086408133     
          25  1.278044276014076E-005
          26 -4.343260723682694E-006
          27 -6.816129732730645E-006
          28  1.681719936387226E-005
          29 -1.103754685563807E-005
          30 -3.771421500641063E-006
Sym=    15a
Ene=  -0.402524988201807     
Spin= Alpha
Occup=     2.00000000
           1  4.476663654057702E-006
           2 -2.622165765853351E-003
           3 -4.746528841899592E-003
           4  0.521639271629683     
           5  4.226096861526977E-006
           6 -1.832954793988430E-003
           7 -3.270119098520436E-003
           8  0.362539166380353     
           9  3.295064437388010E-006
          10  8.060643034736010E-004
          11  1.429365367697282E-003
          12 -0.159103727333980     
          13 -5.717817366040456E-007
          14  2.609265355216542E-003
          15  4.734538557482132E-003
          16 -0.521640097989978     
          17  1.253088357203398E-006
          18  1.816622935393330E-003
          19  3.265710088002553E-003
          20 -0.362538005150307     
          21 -2.553536315351417E-006
          22 -8.001253783845835E-004
          23 -1.427415389891883E-003
          24  0.159098623149299     
          25  4.327951709757579E-006
          26  6.686964833231075E-006
          27 -1.507494688325642E-005
          28  6.684714109660781E-006
          29  9.030389842716668E-006
          30 -1.475872028874844E-005
Sym=    16a
Ene=  -0.221196131428959     
Spin= Alpha
Occup=     0.00000000
           1  7.158047219238939E-006
           2 -3.027620923525764E-003
           3 -5.459581419710478E-003
           4  0.601913598205279     
           5 -8.438138053068236E-006
           6  2.564600895783019E-003
           7  4.609776732101997E-003
           8 -0.509079957633527     
           9  4.465057836106220E-006
          10  4.676589781917796E-004
          11  8.384899621441879E-004
          12 -9.283630408296195E-002
          13 -1.701901564197384E-006
          14 -3.015541061694836E-003
          15 -5.448495629809198E-003
          16  0.601912786457065     
          17  3.701275774680774E-006
          18  2.545790560807454E-003
          19  4.603022117266709E-003
          20 -0.509078239686842     
          21  5.518641399360438E-007
          22  4.672072344762599E-004
          23  8.390603291422189E-004
          24 -9.283169817670565E-002
          25 -5.173124494445349E-006
          26  5.703879452550544E-006
          27 -1.128777319464060E-006
          28  4.402445738222272E-007
          29 -3.092522027262754E-006
          30 -2.681393079388991E-006
Sym=    17a
Ene=  -0.221195726406621     
Spin= Alpha
Occup=     0.00000000
           1 -3.935579653368979E-006
           2 -1.204451490856125E-003
           3 -2.176553887339706E-003
           4  0.240317261915783     
           5  3.286059065018197E-006
           6 -2.015533484899110E-003
           7 -3.634002372269858E-003
           8  0.401110946145570     
           9  6.844612768424389E-006
          10  3.227735633759441E-003
          11  5.806991590691733E-003
          12 -0.641431672560982     
          13 -1.658621045898830E-006
          14 -1.204808708712420E-003
          15 -2.178960749236322E-003
          16  0.240321571168940     
          17 -6.570922868975046E-006
          18 -2.009329527839521E-003
          19 -3.626539364599187E-003
          20  0.401114626994752     
          21  1.590412019541685E-005
          22  3.225481628631356E-003
          23  5.805134910043335E-003
          24 -0.641431854893678     
          25  1.357693292033044E-006
          26 -1.631628011432202E-006
          27 -1.132026977804778E-006
          28  4.216103640600943E-006
          29  5.268260877200798E-006
          30 -8.028291700830991E-006
Sym=    18a
Ene=  -8.992333552661841E-002
Spin= Alpha
Occup=     0.00000000
           1  6.925601882682255E-007
           2 -2.551747871109699E-003
           3 -4.603337376068464E-003
           4  0.508372294119226     
           5 -2.700029512299294E-006
           6  2.555244556343796E-003
           7  4.603660562031949E-003
           8 -0.508372052204657     
           9 -7.430606473822418E-006
          10 -2.553545573599246E-003
          11 -4.600569589318186E-003
          12  0.508371928746046     
          13  7.421715668671929E-006
          14  2.548423292243905E-003
          15  4.602841831767459E-003
          16 -0.508371028574000     
          17 -1.100344074411334E-005
          18 -2.545472315111569E-003
          19 -4.594473409637783E-003
          20  0.508371635457283     
          21  1.651316699226345E-005
          22  2.555402375017115E-003
          23  4.598094818066781E-003
          24 -0.508372289087920     
          25 -1.693266907414725E-006
          26 -1.706521476773625E-007
          27  2.675555426085305E-006
          28 -5.707237062846517E-006
          29  1.069214834638285E-005
          30 -1.087137840895969E-005
Sym=    19a
Ene=   0.118024229213054     
Spin= Alpha
Occup=     0.00000000
           1 -0.322032521328446     
           2 -0.289452239387533     
           3  4.543709447310008E-002
           4 -1.038715524566849E-003
           5 -0.322039046627724     
           6 -0.184065453248121     
           7 -0.227947408933542     
           8 -2.989105630002925E-003
           9 -0.322031316751558     
          10  0.105383902924745     
          11 -0.273382652612406     
          12 -1.945554581776454E-003
          13 -0.322039023503846     
          14  0.289447299645495     
          15 -4.543416967672804E-002
          16  1.038560989117714E-003
          17 -0.322032686694975     
          18  0.184060481716209     
          19  0.227945040946304     
          20  2.979526309256184E-003
          21 -0.322038885949550     
          22 -0.105394004207952     
          23  0.273384583504444     
          24  1.937959480350957E-003
          25  0.461693987356432     
          26  0.461698893289504     
          27  0.461691047999353     
          28  0.461691763269593     
          29  0.461689399191522     
          30  0.461701028046748     
Sym=    20a
Ene=   0.137712422423451     
Spin= Alpha
Occup=     0.00000000
           1 -0.530539207288451     
           2 -5.431305951695280E-002
           3  8.527045492455903E-003
           4 -1.961650181680969E-004
           5  0.530535506414077     
           6  3.453842201094830E-002
           7  4.277262964622180E-002
           8  5.572549923069214E-004
           9 -0.530537254148751     
          10  1.977588078145042E-002
          11 -5.130313090668678E-002
          12 -3.737294224621822E-004
          13  0.530530585935133     
          14 -5.430951186513409E-002
          15  8.521079942491658E-003
          16 -1.855752836710865E-004
          17 -0.530538322815577     
          18  3.454416220170476E-002
          19  4.277328341436699E-002
          20  5.449473973585923E-004
          21  0.530534958875949     
          22  1.977966045350114E-002
          23 -5.129830388799272E-002
          24 -3.457979748241065E-004
          25  0.386325451493238     
          26 -0.386323573609657     
          27  0.386329387016988     
          28 -0.386316693965549     
          29  0.386329362156242     
          30 -0.386324427148389     
Sym=    21a
Ene=   0.173491589738789     
Spin= Alpha
Occup=     0.00000000
           1 -6.517078701908355E-002
           2 -0.111508079590986     
           3  0.260865420809395     
           4  1.809594773282766E-003
           5  0.162227692392790     
           6  9.517974830043396E-002
           7  0.405189661929448     
           8  4.145198017999001E-003
           9  0.227345758180039     
          10 -0.133189070050857     
          11  0.512020229110244     
          12  3.966276972957872E-003
          13  6.509808635084995E-002
          14 -0.111513012297967     
          15  0.260875200258624     
          16  1.806448138880755E-003
          17 -0.162178388870913     
          18  9.515741929927089E-002
          19  0.405208433819938     
          20  4.138278110068228E-003
          21 -0.227318281620023     
          22 -0.133162221898898     
          23  0.512033022090324     
          24  3.959327479114484E-003
          25  0.177745130973517     
          26 -0.442616358238698     
          27 -0.620336904285067     
          28 -0.177712901473536     