12
 energy: -15.878892246693 gnorm: 0.017841574690 xtb: 6.5.0 (746241f)
C            1.38230000000000       -0.19340000000000        0.00540000000000
C            0.88080000000000        1.10740000000000        0.01440000000000
C           -0.49650000000000        1.32360000000000        0.01010000000000
C           -1.37240000000000        0.23900000000000       -0.00450000000000
C           -0.87090000000000       -1.06190000000000       -0.01400000000000
C            0.50640000000000       -1.27800000000000       -0.00840000000000
H            2.45640000000000       -0.36200000000000        0.00930000000000
H            1.56380000000000        1.95330000000000        0.02490000000000
H           -0.88760000000000        2.33810000000000        0.01790000000000
H           -2.44650000000000        0.40760000000000       -0.00840000000000
H           -1.55390000000000       -1.90770000000000       -0.02570000000000
H            0.89750000000000       -2.29250000000000       -0.01510000000000
12
 energy: -15.879630891628 gnorm: 0.001953279543 xtb: 6.5.0 (746241f)
C            1.37365351596054       -0.19204789255453        0.00542695793015
C            0.87530933669741        1.10063060600350        0.01456537667539
C           -0.49337173826602        1.31546703770169        0.00974023037415
C           -1.36374207929701        0.23764002324959       -0.00443944287444
C           -0.86540240578921       -1.05507620272195       -0.01371451077178
C            0.50327041350247       -1.26987717954014       -0.00867092971391
H            2.44216123381146       -0.35978165635759        0.00926591695135
H            1.55475902756378        1.94212027842528        0.02544184081588
H           -0.88242688829474        2.32466190028841        0.01709108739603
H           -2.43225240883611        0.40535639847265       -0.00827159497014
H           -1.54487654237988       -1.89651299275013       -0.02487595938614
H            0.89231853532732       -2.27908032021678       -0.01565897242655
12
 energy: -15.879638062747 gnorm: 0.001042183506 xtb: 6.5.0 (746241f)
C            1.37224484012373       -0.19182988673110        0.00540771258708
C            0.87441959752814        1.09954864000019        0.01461107695254
C           -0.49287567232173        1.31416830979529        0.00968600110034
C           -1.36233981627418        0.23741617180542       -0.00442474586264
C           -0.86451439291448       -1.05396470504312       -0.01358315080116
C            0.50277401291996       -1.26858594202047       -0.00867913627992
H            2.43920507881433       -0.35931916936891        0.00925840499709
H            1.55289676899142        1.93980002442937        0.02567954323022
H           -0.88135225125957        2.32189167081908        0.01678689671129
H           -2.42930329647604        0.40489090625663       -0.00829378657142
H           -1.54300875174008       -1.89420680576616       -0.02458704252660
H            0.89125388260850       -2.27630921417622       -0.01596177353682
12
 energy: -15.879640655491 gnorm: 0.000058636456 xtb: 6.5.0 (746241f)
C            1.37279302331594       -0.19191636817729        0.00541996521662
C            0.87476744854799        1.09997967139642        0.01462361271685
C           -0.49307533466062        1.31468852097622        0.00967498625172
C           -1.36289150411927        0.23750214160939       -0.00444029564517
C           -0.86486469227616       -1.05439854990285       -0.01363816363165
C            0.50297494900609       -1.26910480071263       -0.00872497324299
H            2.44016582231328       -0.35946616270761        0.00926105960351
H            1.55350957697586        1.94055182284249        0.02564283530792
H           -0.88170160061330        2.32280158156416        0.01685409936229
H           -2.43026593048584        0.40504329067701       -0.00826906253448
H           -1.54361569582208       -1.89496352735084       -0.02462757375909
H            0.89160393781812       -2.27721762021448       -0.01587648964551
