3
 energy: -5.070544427123 gnorm: 0.000183139198 xtb: 6.5.0 (746241f)
O           -2.21931693005810        1.17841865603631       -0.01200117003491
H           -1.40641984355735        1.43314919333778        0.42866583755316
H           -2.65637322638455        0.53426215062591        0.54828533248175
