3
 energy: -5.070322519569 gnorm: 0.017399456279 xtb: 6.5.0 (746241f)
O           -2.21481000000000        1.17375000000000        0.00000000000000
H           -1.40580000000000        1.43755000000000        0.42239000000000
H           -2.66150000000000        0.53453000000000        0.54256000000000
3
 energy: -5.070491991209 gnorm: 0.006408043624 xtb: 6.5.0 (746241f)
O           -2.21678623947214        1.17579674987715       -0.00526174557843
H           -1.40360105042232        1.43739724133920        0.42490521051978
H           -2.66172271010554        0.53263600878365        0.54530653505866
3
 energy: -5.070538031747 gnorm: 0.001437671048 xtb: 6.5.0 (746241f)
O           -2.21864154819120        1.17771871251767       -0.01020223275548
H           -1.40433130090455        1.43524393822400        0.42753421164758
H           -2.65913715090425        0.53286734925833        0.54761802110790
3
 energy: -5.070543965336 gnorm: 0.000886288817 xtb: 6.5.0 (746241f)
O           -2.21948268043276        1.17859029261134       -0.01244243766356
H           -1.40615099881208        1.43319709720469        0.42886869833781
H           -2.65647632075516        0.53404261018397        0.54852373932576
3
 energy: -5.070544427122 gnorm: 0.000184679971 xtb: 6.5.0 (746241f)
O           -2.21931693005810        1.17841865603631       -0.01200117003491
H           -1.40641984355735        1.43314919333778        0.42866583755316
H           -2.65637322638455        0.53426215062591        0.54828533248175
