      -----------------------------------------------------------      
     |                   =====================                   |     
     |                           x T B                           |     
     |                   =====================                   |     
     |                         S. Grimme                         |     
     |          Mulliken Center for Theoretical Chemistry        |     
     |                    University of Bonn                     |     
      -----------------------------------------------------------      

   * xtb version 6.2.2 (655bc02) compiled by 'ehlert@majestix' on 2019-12-09

   This program is distributed in the hope that it will be useful,
   but WITHOUT ANY WARRANTY; without even the implied warranty of
   MERCHANTABILITY or FITNESS FOR A PARTICULAR PURPOSE.
   
   FOR NON-COMMERCIAL, ACADEMIA USE ONLY.
   
   Cite this work as:
   * S. Grimme, C. Bannwarth, P. Shushkov, J. Chem. Theory Comput., 2017,
     13, 1989-2009. DOI: 10.1021/acs.jctc.7b00118
   * C. Bannwarth, S. Ehlert and S. Grimme., J. Chem. Theory Comput., 2019,
     15, 1652-1671. DOI: 10.1021/acs.jctc.8b01176
   * P. Pracht, E. Caldeweyher, S. Ehlert, S. Grimme, ChemRxiv, 2019, preprint.
     DOI: 10.26434/chemrxiv.8326202.v1
   
   for DFT-D4:
   * E. Caldeweyher, C. Bannwarth and S. Grimme, J. Chem. Phys., 2017,
     147, 034112. DOI: 10.1063/1.4993215
   * E. Caldeweyher, S. Ehlert, A. Hansen, H. Neugebauer, S. Spicher,
     C. Bannwarth and S. Grimme, J. Chem. Phys., 2019, 150, 154122.
     DOI: 10.1063/1.5090222
   
   for sTDA-xTB:
   * S. Grimme and C. Bannwarth, J. Chem. Phys., 2016, 145, 054103.
     DOI: 10.1063/1.4959605
   
   in the mass-spec context:
   * V. Asgeirsson, C. Bauer and S. Grimme, Chem. Sci., 2017, 8, 4879.
     DOI: 10.1039/c7sc00601b
   
   for metadynamics refer to:
   * S. Grimme, J. Chem. Theory Comput., 2019, 155, 2847-2862
     DOI: 10.1021/acs.jctc.9b00143
   
   with help from (in alphabetical order)
   C. Bannwarth, F. Bohle, G. Brandenburg, E. Caldeweyher, M. Checinski,
   S. Dohm, S. Ehlert, S. Ehrlich, F. März, H. Neugebauer, J. Pisarek,
   P. Pracht, P. Shushkov, and S. Spicher.
   
 * started run on 2022/07/20 at 09:54:42.710     

           -------------------------------------------------
          |                Calculation Setup                |
           -------------------------------------------------

          program call               : xtb -c 0 -u 0 input.xyz
          coordinate file            : input.xyz
          omp threads                :                     1
          number of atoms            :                    24
          number of electrons        :                    60
          charge                     :                     0
          spin                       :                   0.0
          first test random number   :      0.74189408266032


molecular fragmentation (1/2 indicates fragments):
111111111111222222222222
# atoms in fragment 1/2:    12    12
 fragment masses (1/2) :       78.11       78.11
CMA distance (Bohr)    :   6.803
constraining FC (au)   :  0.0500

########################################################################
# WARNING! Please study the warnings concerning your input carefully
#  - XTBHOME is not set, using HOME instead
#  - XTBPATH is not set, using XTBHOME instead
########################################################################

           ------------------------------------------------- 
          |                 G F N 2 - x T B                 |
          | Geometry, Frequencies, Noncovalent interactions |
          |            JCTC 2019 parametrisation            |
           ------------------------------------------------- 
             k(s)              :                1.8500
             k(p)              :                2.2300
             k(d)              :                2.2300
             k(f)              :                2.0000
             kEN (H0ij)        :               -2.0000
             D4 a1             :                0.5200
             D4 a2             :                5.0000
             D4 s6             :                1.0000
             D4 s8             :                2.7000
             D4 s9             :                5.0000
             alphaj            :                2.0000

  Z AO/shell   Hii/eV     exponent
  1     Wed Apr 25 08:07:45 CEST 2018   EN: 2.200 GM2: 0.406  GM3: 0.0800  RAES: 1.40
     1s    -10.707211    1.230000
  6     Wed Apr 25 08:07:45 CEST 2018   EN: 2.550 GM2: 0.538  GM3: 0.1500  RAES: 3.00
     2s    -13.970922    2.096432
     2p    -10.063292    1.800000

           ------------------------------------------------- 
          |        Self-Consistent Charge Iterations        |
           ------------------------------------------------- 

          ...................................................
          :                      SETUP                      :
          :.................................................:
          :  # basis functions                  60          :
          :  # atomic orbitals                  60          :
          :  # shells                           36          :
          :  # electrons                        60          :
          :  max. iterations                   250          :
          :  Hamiltonian                  GFN2-xTB          :
          :  restarted?                      false          :
          :  GBSA solvation                  false          :
          :  PC potential                    false          :
          :  electronic temp.          300.0000000     K    :
          :  accuracy                    1.0000000          :
          :  -> integral cutoff          0.2500000E+02      :
          :  -> integral neglect         0.1000000E-07      :
          :  -> SCF convergence          0.1000000E-05 Eh   :
          :  -> wf. convergence          0.1000000E-03 e    :
          :  Broyden damping             0.4000000          :
          ...................................................

 iter      E             dE          RMSdq      gap      omega  full diag
   1    -32.3657067 -0.323657E+02  0.484E+00    4.79       0.0  T
   2    -32.3981295 -0.324228E-01  0.290E+00    4.77       1.0  T
   3    -32.3988805 -0.751057E-03  0.510E-01    4.76       1.0  T
   4    -32.3994493 -0.568777E-03  0.534E-02    4.75       1.0  T
   5    -32.3994494 -0.106994E-06  0.562E-03    4.75       3.6  T
   6    -32.3994494 -0.843688E-08  0.947E-04    4.76      21.6  T
   7    -32.3994494 -0.149235E-09  0.499E-05    4.76     408.7  T

   *** convergence criteria satisfied after 7 iterations ***

         #    Occupation            Energy/Eh            Energy/eV
      -------------------------------------------------------------
         1        2.0000           -0.6387384             -17.3810
       ...           ...                  ...                  ...
        24        2.0000           -0.4200537             -11.4302
        25        2.0000           -0.4191306             -11.4051
        26        2.0000           -0.4191304             -11.4051
        27        2.0000           -0.4034352             -10.9780
        28        2.0000           -0.4034351             -10.9780
        29        2.0000           -0.3966070             -10.7922
        30        2.0000           -0.3966069             -10.7922 (HOMO)
        31                         -0.2218621              -6.0372 (LUMO)
        32                         -0.2218620              -6.0372
        33                         -0.2160524              -5.8791
        34                         -0.2160523              -5.8791
        35                         -0.0900877              -2.4514
       ...                                ...                  ...
        60                          0.6770891              18.4245
      -------------------------------------------------------------
                  HL-Gap            0.1747448 Eh            4.7550 eV
             Fermi-level           -0.3092345 Eh           -8.4147 eV

 SCC (total)                   0 d,  0 h,  0 min,  0.046 sec
 SCC setup                      ...        0 min,  0.000 sec (  0.428%)
 Dispersion                     ...        0 min,  0.000 sec (  0.428%)
 integral evaluation            ...        0 min,  0.011 sec ( 24.244%)
 zeroth order Hamiltonian       ...        0 min,  0.000 sec (  0.337%)
 iterations                     ...        0 min,  0.007 sec ( 14.516%)
 molecular gradient             ...        0 min,  0.016 sec ( 35.454%)
 printout                       ...        0 min,  0.011 sec ( 24.514%)

         :::::::::::::::::::::::::::::::::::::::::::::::::::::
         ::                     SUMMARY                     ::
         :::::::::::::::::::::::::::::::::::::::::::::::::::::
         :: total energy             -31.765338970404 Eh    ::
         :: gradient norm              0.002306284541 Eh/a0 ::
         :: HOMO-LUMO gap              4.755047514354 eV    ::
         ::.................................................::
         :: SCC energy               -32.399449402115 Eh    ::
         :: -> isotropic ES            0.001648057070 Eh    ::
         :: -> anisotropic ES          0.005922210058 Eh    ::
         :: -> anisotropic XC          0.024709940457 Eh    ::
         :: -> dispersion             -0.023703128972 Eh    ::
         :: repulsion energy           0.633691232380 Eh    ::
         :: add. restraining           0.000000000000 Eh    ::
         :::::::::::::::::::::::::::::::::::::::::::::::::::::

           -------------------------------------------------
          |                Property Printout                |
           -------------------------------------------------

    * Orbital Energies and Occupations

         #    Occupation            Energy/Eh            Energy/eV
      -------------------------------------------------------------
         1        2.0000           -0.6387384             -17.3810
       ...           ...                  ...                  ...
        18        2.0000           -0.4748407             -12.9211
        19        2.0000           -0.4748405             -12.9211
        20        2.0000           -0.4738633             -12.8945
        21        2.0000           -0.4738631             -12.8945
        22        2.0000           -0.4684514             -12.7472
        23        2.0000           -0.4200539             -11.4302
        24        2.0000           -0.4200537             -11.4302
        25        2.0000           -0.4191306             -11.4051
        26        2.0000           -0.4191304             -11.4051
        27        2.0000           -0.4034352             -10.9780
        28        2.0000           -0.4034351             -10.9780
        29        2.0000           -0.3966070             -10.7922
        30        2.0000           -0.3966069             -10.7922 (HOMO)
        31                         -0.2218621              -6.0372 (LUMO)
        32                         -0.2218620              -6.0372
        33                         -0.2160524              -5.8791
        34                         -0.2160523              -5.8791
        35                         -0.0900877              -2.4514
        36                         -0.0855572              -2.3281
        37                          0.1167153               3.1760
        38                          0.1224531               3.3321
        39                          0.1379417               3.7536
        40                          0.1405475               3.8245
        41                          0.1729546               4.7063
       ...                                ...                  ...
        60                          0.6770891              18.4245
      -------------------------------------------------------------
                  HL-Gap            0.1747448 Eh            4.7550 eV
             Fermi-level           -0.3092345 Eh           -8.4147 eV

     #   Z        covCN         q      C6AA      α(0)
     1   1 H      0.926     0.028     2.610     2.526
     2   6 C      2.920    -0.028    28.708     8.786
     3   6 C      2.920    -0.028    28.708     8.786
     4   1 H      0.926     0.028     2.610     2.526
     5   6 C      2.920    -0.028    28.708     8.786
     6   1 H      0.926     0.028     2.610     2.526
     7   6 C      2.920    -0.028    28.708     8.786
     8   1 H      0.926     0.028     2.610     2.526
     9   6 C      2.920    -0.028    28.708     8.786
    10   1 H      0.926     0.028     2.610     2.526
    11   6 C      2.920    -0.028    28.708     8.786
    12   1 H      0.926     0.028     2.610     2.526
    13   1 H      0.926     0.028     2.610     2.526
    14   6 C      2.920    -0.028    28.708     8.786
    15   6 C      2.920    -0.028    28.708     8.786
    16   1 H      0.926     0.028     2.610     2.526
    17   6 C      2.920    -0.028    28.708     8.786
    18   1 H      0.926     0.028     2.610     2.526
    19   6 C      2.920    -0.028    28.708     8.786
    20   1 H      0.926     0.028     2.610     2.526
    21   6 C      2.920    -0.028    28.708     8.786
    22   1 H      0.926     0.028     2.610     2.526
    23   6 C      2.920    -0.028    28.708     8.786
    24   1 H      0.926     0.028     2.610     2.526

 Mol. C6AA /au·bohr⁶  :       6999.598949
 Mol. C8AA /au·bohr⁸  :     170659.316097
 Mol. α(0) /au        :        135.754938


Wiberg/Mayer (AO) data.
largest (>0.10) Wiberg bond orders for each atom
          total WBO             WBO to atom ...
     1  H   0.999        C    2 0.972
     2  C   3.993        C    3 1.441    C   11 1.441    H    1 0.972    C    7 0.114
     3  C   3.993        C    2 1.441    C    5 1.441    H    4 0.972    C    9 0.114
     4  H   0.999        C    3 0.972
     5  C   3.993        C    7 1.441    C    3 1.441    H    6 0.972    C   11 0.114
     6  H   0.999        C    5 0.972
     7  C   3.993        C    5 1.441    C    9 1.441    H    8 0.972    C    2 0.114
     8  H   0.999        C    7 0.972
     9  C   3.993        C   11 1.441    C    7 1.441    H   10 0.972    C    3 0.114
    10  H   0.999        C    9 0.972
    11  C   3.993        C    9 1.441    C    2 1.441    H   12 0.972    C    5 0.114
    12  H   0.999        C   11 0.972
    13  H   0.999        C   14 0.972
    14  C   3.993        C   15 1.441    C   23 1.441    H   13 0.972    C   19 0.114
    15  C   3.993        C   14 1.441    C   17 1.441    H   16 0.972    C   21 0.114
    16  H   0.999        C   15 0.972
    17  C   3.993        C   19 1.441    C   15 1.441    H   18 0.972    C   23 0.114
    18  H   0.999        C   17 0.972
    19  C   3.993        C   17 1.441    C   21 1.441    H   20 0.972    C   14 0.114
    20  H   0.999        C   19 0.972
    21  C   3.993        C   23 1.441    C   19 1.441    H   22 0.972    C   15 0.114
    22  H   0.999        C   21 0.972
    23  C   3.993        C   21 1.441    C   14 1.441    H   24 0.972    C   17 0.114
    24  H   0.999        C   23 0.972

molecular dipole:
                 x           y           z       tot (Debye)
 q only:        0.000       0.000      -0.000
   full:        0.000       0.000      -0.000       0.000
molecular quadrupole (traceless):
                xx          xy          yy          xz          yz          zz
 q only:        1.262       0.000       1.262       0.000      -0.000      -2.525
  q+dip:        5.422      -0.000       5.422       0.000      -0.000     -10.843
   full:        2.749      -0.000       2.749       0.000      -0.000      -5.499


           -------------------------------------------------
          | TOTAL ENERGY              -31.765338970404 Eh   |
          | GRADIENT NORM               0.002306284541 Eh/α |
          | HOMO-LUMO GAP               4.755047514354 eV   |
           -------------------------------------------------

------------------------------------------------------------------------
 * finished run on 2022/07/20 at 09:54:42.777     
------------------------------------------------------------------------
 total:
 * wall-time:     0 d,  0 h,  0 min,  0.067 sec
 *  cpu-time:     0 d,  0 h,  0 min,  0.051 sec
 * ratio c/w:     0.764 speedup
 SCF:
 * wall-time:     0 d,  0 h,  0 min,  0.047 sec
 *  cpu-time:     0 d,  0 h,  0 min,  0.035 sec
 * ratio c/w:     0.761 speedup

