      -----------------------------------------------------------      
     |                   =====================                   |     
     |                           x T B                           |     
     |                   =====================                   |     
     |                         S. Grimme                         |     
     |          Mulliken Center for Theoretical Chemistry        |     
     |                    University of Bonn                     |     
      -----------------------------------------------------------      

   * xtb version 6.2.2 (655bc02) compiled by 'ehlert@majestix' on 2019-12-09

   This program is distributed in the hope that it will be useful,
   but WITHOUT ANY WARRANTY; without even the implied warranty of
   MERCHANTABILITY or FITNESS FOR A PARTICULAR PURPOSE.
   
   FOR NON-COMMERCIAL, ACADEMIA USE ONLY.
   
   Cite this work as:
   * S. Grimme, C. Bannwarth, P. Shushkov, J. Chem. Theory Comput., 2017,
     13, 1989-2009. DOI: 10.1021/acs.jctc.7b00118
   * C. Bannwarth, S. Ehlert and S. Grimme., J. Chem. Theory Comput., 2019,
     15, 1652-1671. DOI: 10.1021/acs.jctc.8b01176
   * P. Pracht, E. Caldeweyher, S. Ehlert, S. Grimme, ChemRxiv, 2019, preprint.
     DOI: 10.26434/chemrxiv.8326202.v1
   
   for DFT-D4:
   * E. Caldeweyher, C. Bannwarth and S. Grimme, J. Chem. Phys., 2017,
     147, 034112. DOI: 10.1063/1.4993215
   * E. Caldeweyher, S. Ehlert, A. Hansen, H. Neugebauer, S. Spicher,
     C. Bannwarth and S. Grimme, J. Chem. Phys., 2019, 150, 154122.
     DOI: 10.1063/1.5090222
   
   for sTDA-xTB:
   * S. Grimme and C. Bannwarth, J. Chem. Phys., 2016, 145, 054103.
     DOI: 10.1063/1.4959605
   
   in the mass-spec context:
   * V. Asgeirsson, C. Bauer and S. Grimme, Chem. Sci., 2017, 8, 4879.
     DOI: 10.1039/c7sc00601b
   
   for metadynamics refer to:
   * S. Grimme, J. Chem. Theory Comput., 2019, 155, 2847-2862
     DOI: 10.1021/acs.jctc.9b00143
   
   with help from (in alphabetical order)
   C. Bannwarth, F. Bohle, G. Brandenburg, E. Caldeweyher, M. Checinski,
   S. Dohm, S. Ehlert, S. Ehrlich, F. März, H. Neugebauer, J. Pisarek,
   P. Pracht, P. Shushkov, and S. Spicher.
   
 * started run on 2022/07/20 at 09:54:45.679     

           -------------------------------------------------
          |                Calculation Setup                |
           -------------------------------------------------

          program call               : xtb -c 0 -u 0 input.xyz
          coordinate file            : input.xyz
          omp threads                :                     1
          number of atoms            :                    24
          number of electrons        :                    60
          charge                     :                     0
          spin                       :                   0.0
          first test random number   :      0.36102697424930


molecular fragmentation (1/2 indicates fragments):
111111111111222222222222
# atoms in fragment 1/2:    12    12
 fragment masses (1/2) :       78.11       78.11
CMA distance (Bohr)    :  11.338
constraining FC (au)   :  0.0500

########################################################################
# WARNING! Please study the warnings concerning your input carefully
#  - XTBHOME is not set, using HOME instead
#  - XTBPATH is not set, using XTBHOME instead
########################################################################

           ------------------------------------------------- 
          |                 G F N 2 - x T B                 |
          | Geometry, Frequencies, Noncovalent interactions |
          |            JCTC 2019 parametrisation            |
           ------------------------------------------------- 
             k(s)              :                1.8500
             k(p)              :                2.2300
             k(d)              :                2.2300
             k(f)              :                2.0000
             kEN (H0ij)        :               -2.0000
             D4 a1             :                0.5200
             D4 a2             :                5.0000
             D4 s6             :                1.0000
             D4 s8             :                2.7000
             D4 s9             :                5.0000
             alphaj            :                2.0000

  Z AO/shell   Hii/eV     exponent
  1     Wed Apr 25 08:07:45 CEST 2018   EN: 2.200 GM2: 0.406  GM3: 0.0800  RAES: 1.40
     1s    -10.707211    1.230000
  6     Wed Apr 25 08:07:45 CEST 2018   EN: 2.550 GM2: 0.538  GM3: 0.1500  RAES: 3.00
     2s    -13.970922    2.096432
     2p    -10.063292    1.800000

           ------------------------------------------------- 
          |        Self-Consistent Charge Iterations        |
           ------------------------------------------------- 

          ...................................................
          :                      SETUP                      :
          :.................................................:
          :  # basis functions                  60          :
          :  # atomic orbitals                  60          :
          :  # shells                           36          :
          :  # electrons                        60          :
          :  max. iterations                   250          :
          :  Hamiltonian                  GFN2-xTB          :
          :  restarted?                      false          :
          :  GBSA solvation                  false          :
          :  PC potential                    false          :
          :  electronic temp.          300.0000000     K    :
          :  accuracy                    1.0000000          :
          :  -> integral cutoff          0.2500000E+02      :
          :  -> integral neglect         0.1000000E-07      :
          :  -> SCF convergence          0.1000000E-05 Eh   :
          :  -> wf. convergence          0.1000000E-03 e    :
          :  Broyden damping             0.4000000          :
          ...................................................

 iter      E             dE          RMSdq      gap      omega  full diag
   1    -32.3612313 -0.323612E+02  0.483E+00    4.95       0.0  T
   2    -32.3921392 -0.309079E-01  0.289E+00    4.94       1.0  T
   3    -32.3929230 -0.783781E-03  0.501E-01    4.93       1.0  T
   4    -32.3935333 -0.610315E-03  0.505E-02    4.93       1.0  T
   5    -32.3935334 -0.579238E-07  0.625E-03    4.93       3.3  T
   6    -32.3935334 -0.114145E-07  0.774E-04    4.93      26.4  T
   7    -32.3935334 -0.860112E-10  0.403E-05    4.93     507.0  T

   *** convergence criteria satisfied after 7 iterations ***

         #    Occupation            Energy/Eh            Energy/eV
      -------------------------------------------------------------
         1        2.0000           -0.6404704             -17.4281
       ...           ...                  ...                  ...
        24        2.0000           -0.4204824             -11.4419
        25        2.0000           -0.4204819             -11.4419
        26        2.0000           -0.4204817             -11.4419
        27        2.0000           -0.4014693             -10.9245
        28        2.0000           -0.4014692             -10.9245
        29        2.0000           -0.4014666             -10.9245
        30        2.0000           -0.4014665             -10.9245 (HOMO)
        31                         -0.2202027              -5.9920 (LUMO)
        32                         -0.2202026              -5.9920
        33                         -0.2202015              -5.9920
        34                         -0.2202014              -5.9920
        35                         -0.0889689              -2.4210
       ...                                ...                  ...
        60                          0.6750212              18.3683
      -------------------------------------------------------------
                  HL-Gap            0.1812638 Eh            4.9324 eV
             Fermi-level           -0.3108346 Eh           -8.4582 eV

 SCC (total)                   0 d,  0 h,  0 min,  0.018 sec
 SCC setup                      ...        0 min,  0.000 sec (  0.719%)
 Dispersion                     ...        0 min,  0.000 sec (  0.880%)
 integral evaluation            ...        0 min,  0.006 sec ( 30.661%)
 zeroth order Hamiltonian       ...        0 min,  0.000 sec (  0.431%)
 iterations                     ...        0 min,  0.004 sec ( 20.150%)
 molecular gradient             ...        0 min,  0.007 sec ( 36.647%)
 printout                       ...        0 min,  0.002 sec ( 10.300%)

         :::::::::::::::::::::::::::::::::::::::::::::::::::::
         ::                     SUMMARY                     ::
         :::::::::::::::::::::::::::::::::::::::::::::::::::::
         :: total energy             -31.759336475040 Eh    ::
         :: gradient norm              0.000546165861 Eh/a0 ::
         :: HOMO-LUMO gap              4.932439300589 eV    ::
         ::.................................................::
         :: SCC energy               -32.393533373630 Eh    ::
         :: -> isotropic ES            0.001598071542 Eh    ::
         :: -> anisotropic ES          0.005235553681 Eh    ::
         :: -> anisotropic XC          0.024757992971 Eh    ::
         :: -> dispersion             -0.016335952250 Eh    ::
         :: repulsion energy           0.633690896282 Eh    ::
         :: add. restraining           0.000000000000 Eh    ::
         :::::::::::::::::::::::::::::::::::::::::::::::::::::

           -------------------------------------------------
          |                Property Printout                |
           -------------------------------------------------

    * Orbital Energies and Occupations

         #    Occupation            Energy/Eh            Energy/eV
      -------------------------------------------------------------
         1        2.0000           -0.6404704             -17.4281
       ...           ...                  ...                  ...
        18        2.0000           -0.4753928             -12.9361
        19        2.0000           -0.4753924             -12.9361
        20        2.0000           -0.4753921             -12.9361
        21        2.0000           -0.4736576             -12.8889
        22        2.0000           -0.4736542             -12.8888
        23        2.0000           -0.4204826             -11.4419
        24        2.0000           -0.4204824             -11.4419
        25        2.0000           -0.4204819             -11.4419
        26        2.0000           -0.4204817             -11.4419
        27        2.0000           -0.4014693             -10.9245
        28        2.0000           -0.4014692             -10.9245
        29        2.0000           -0.4014666             -10.9245
        30        2.0000           -0.4014665             -10.9245 (HOMO)
        31                         -0.2202027              -5.9920 (LUMO)
        32                         -0.2202026              -5.9920
        33                         -0.2202015              -5.9920
        34                         -0.2202014              -5.9920
        35                         -0.0889689              -2.4210
        36                         -0.0889686              -2.4210
        37                          0.1188905               3.2352
        38                          0.1189003               3.2354
        39                          0.1385465               3.7700
        40                          0.1385506               3.7702
        41                          0.1743720               4.7449
       ...                                ...                  ...
        60                          0.6750212              18.3683
      -------------------------------------------------------------
                  HL-Gap            0.1812638 Eh            4.9324 eV
             Fermi-level           -0.3108346 Eh           -8.4582 eV

     #   Z        covCN         q      C6AA      α(0)
     1   1 H      0.926     0.029     2.605     2.524
     2   6 C      2.920    -0.029    28.717     8.788
     3   6 C      2.920    -0.029    28.717     8.788
     4   1 H      0.926     0.029     2.605     2.524
     5   6 C      2.920    -0.029    28.717     8.788
     6   1 H      0.926     0.029     2.605     2.524
     7   6 C      2.920    -0.029    28.717     8.788
     8   1 H      0.926     0.029     2.605     2.524
     9   6 C      2.920    -0.029    28.717     8.788
    10   1 H      0.926     0.029     2.605     2.524
    11   6 C      2.920    -0.029    28.717     8.788
    12   1 H      0.926     0.029     2.605     2.524
    13   1 H      0.926     0.029     2.605     2.524
    14   6 C      2.920    -0.029    28.717     8.788
    15   6 C      2.920    -0.029    28.717     8.788
    16   1 H      0.926     0.029     2.605     2.524
    17   6 C      2.920    -0.029    28.717     8.788
    18   1 H      0.926     0.029     2.605     2.524
    19   6 C      2.920    -0.029    28.717     8.788
    20   1 H      0.926     0.029     2.605     2.524
    21   6 C      2.920    -0.029    28.717     8.788
    22   1 H      0.926     0.029     2.605     2.524
    23   6 C      2.920    -0.029    28.717     8.788
    24   1 H      0.926     0.029     2.605     2.524

 Mol. C6AA /au·bohr⁶  :       6998.104520
 Mol. C8AA /au·bohr⁸  :     170648.346064
 Mol. α(0) /au        :        135.741661


Wiberg/Mayer (AO) data.
largest (>0.10) Wiberg bond orders for each atom
          total WBO             WBO to atom ...
     1  H   0.999        C    2 0.972
     2  C   3.993        C    3 1.441    C   11 1.441    H    1 0.972    C    7 0.114
     3  C   3.993        C    2 1.441    C    5 1.441    H    4 0.972    C    9 0.114
     4  H   0.999        C    3 0.972
     5  C   3.993        C    7 1.441    C    3 1.441    H    6 0.972    C   11 0.114
     6  H   0.999        C    5 0.972
     7  C   3.993        C    5 1.441    C    9 1.441    H    8 0.972    C    2 0.114
     8  H   0.999        C    7 0.972
     9  C   3.993        C   11 1.441    C    7 1.441    H   10 0.972    C    3 0.114
    10  H   0.999        C    9 0.972
    11  C   3.993        C    9 1.441    C    2 1.441    H   12 0.972    C    5 0.114
    12  H   0.999        C   11 0.972
    13  H   0.999        C   14 0.972
    14  C   3.993        C   15 1.441    C   23 1.441    H   13 0.972    C   19 0.114
    15  C   3.993        C   14 1.441    C   17 1.441    H   16 0.972    C   21 0.114
    16  H   0.999        C   15 0.972
    17  C   3.993        C   19 1.441    C   15 1.441    H   18 0.972    C   23 0.114
    18  H   0.999        C   17 0.972
    19  C   3.993        C   17 1.441    C   21 1.441    H   20 0.972    C   14 0.114
    20  H   0.999        C   19 0.972
    21  C   3.993        C   23 1.441    C   19 1.441    H   22 0.972    C   15 0.114
    22  H   0.999        C   21 0.972
    23  C   3.993        C   21 1.441    C   14 1.441    H   24 0.972    C   17 0.114
    24  H   0.999        C   23 0.972

molecular dipole:
                 x           y           z       tot (Debye)
 q only:        0.000       0.000      -0.000
   full:        0.000       0.000      -0.000       0.000
molecular quadrupole (traceless):
                xx          xy          yy          xz          yz          zz
 q only:        1.278       0.000       1.278       0.000      -0.000      -2.555
  q+dip:        5.387      -0.000       5.387       0.000      -0.000     -10.773
   full:        2.718      -0.000       2.718       0.000      -0.000      -5.436


           -------------------------------------------------
          | TOTAL ENERGY              -31.759336475040 Eh   |
          | GRADIENT NORM               0.000546165861 Eh/α |
          | HOMO-LUMO GAP               4.932439300589 eV   |
           -------------------------------------------------

------------------------------------------------------------------------
 * finished run on 2022/07/20 at 09:54:45.716     
------------------------------------------------------------------------
 total:
 * wall-time:     0 d,  0 h,  0 min,  0.037 sec
 *  cpu-time:     0 d,  0 h,  0 min,  0.029 sec
 * ratio c/w:     0.787 speedup
 SCF:
 * wall-time:     0 d,  0 h,  0 min,  0.018 sec
 *  cpu-time:     0 d,  0 h,  0 min,  0.017 sec
 * ratio c/w:     0.906 speedup

