[Molden Format]
[Title]
[Atoms] AU
C      1     6  0.83667312010659E+01  0.23510615383428E+02 -0.20781324188388E+01
C      2     6  0.91751794008225E+01  0.23894006079877E+02  0.32903358230271E+00
S      3    16  0.88140602053696E+01  0.21253128286714E+02  0.21842886060646E+01
C      4     6  0.75353641168070E+01  0.19574118394308E+02 -0.34348419488558E+00
C      5     6  0.67359138562594E+01  0.17021053495749E+02 -0.40756494468420E-01
C      6     6  0.68078092472775E+01  0.15554099052273E+02  0.21016578794947E+01
C      7     6  0.58254973061414E+01  0.13128280227105E+02  0.17490394633307E+01
C      8     6  0.49886066788750E+01  0.12693265805904E+02 -0.67275938434287E+00
C      9     6  0.38505610144987E+01  0.10473831060968E+02 -0.16712974635687E+01
C     10     6  0.30937508800717E+01  0.10008350344901E+02 -0.41137536847653E+01
C     11     6  0.19897098847880E+01  0.76313740115342E+01 -0.44370053016899E+01
C     12     6  0.18757595650486E+01  0.62371404595573E+01 -0.22482865861074E+01
C     13     6  0.84012222386064E+00  0.37781029456926E+01 -0.18884938323809E+01
C     14     6  0.67370247638935E+00  0.24041545722177E+01  0.30367699834973E+00
C     15     6 -0.49986860405391E+00  0.42969200355106E-01 -0.31153521800416E-01
C     16     6 -0.12189448121473E+01 -0.37346024227517E+00 -0.24610582510903E+01
S     17    16 -0.47657285972553E+00  0.21170040633191E+01 -0.44086043585202E+01
S     18    16  0.31850873220409E+01  0.78999079649340E+01  0.27255765302397E+00
S     19    16  0.54363966209348E+01  0.15352744311434E+02 -0.25629520105592E+01
C     20     6  0.74316672788485E+01  0.21053665019162E+02 -0.24697991149805E+01
H     21     1  0.84333808948974E+01  0.24935341850893E+02 -0.35253704705265E+01
H     22     1  0.99656971254421E+01  0.25571484449297E+02  0.11429422024555E+01
H     23     1  0.75481916056038E+01  0.16238793148021E+02  0.38666928957181E+01
H     24     1  0.57182277157632E+01  0.11717191390873E+02  0.32083058249615E+01
H     25     1  0.33396648982422E+01  0.11365180635603E+02 -0.56073634053940E+01
H     26     1  0.12808739356264E+01  0.69351773319030E+01 -0.62104949997926E+01
H     27     1  0.13745017943604E+01  0.30905892449455E+01  0.20837422783105E+01
H     28     1 -0.80020959102587E+00 -0.12899870029057E+01  0.14728231522540E+01
H     29     1 -0.21464973275472E+01 -0.19952641107169E+01 -0.32425780611013E+01
H     30     1  0.67008133788889E+01  0.20377219614727E+02 -0.42415990495038E+01
[GTO]
           1 0
 s           4   1.00000000000000     
   51.0493630955799      -0.163120632101274     
   8.79112274068875      -0.199110245810007     
  0.706404222589298       0.318820477536558     
  0.269228134134116       0.127065041842404     
 p           4   1.00000000000000     
   5.82636561408000       0.737164515452096     
   1.51068960187200       0.682163716148503     
  0.532564832880000       0.357830539292537     
  0.212023236906000       5.398303027584788E-002
 
           2 0
 s           4   1.00000000000000     
   51.0493630955799      -0.163120632101274     
   8.79112274068875      -0.199110245810007     
  0.706404222589298       0.318820477536558     
  0.269228134134116       0.127065041842404     
 p           4   1.00000000000000     
   5.82636561408000       0.737164515452096     
   1.51068960187200       0.682163716148503     
  0.532564832880000       0.357830539292537     
  0.212023236906000       5.398303027584788E-002
 
           3 0
 s           4   1.00000000000000     
   5.94059715667128      -8.937241731159805E-002
   1.67332031646937      -0.180826416098390     
  0.300052353376111       0.217239963388792     
  0.147626982610695       6.093036238655329E-002
 p           4   1.00000000000000     
   7.60402394306428      -0.258148203245547     
  0.785799530644415       0.290555694475872     
  0.355154539932778       0.228494836712103     
  0.171689541475341       3.379048730081900E-002
 d           3   1.00000000000000     
   1.51575937639239       0.574808919567051     
  0.475268595433768       0.261853961962925     
  0.185128831077629       3.488754942672512E-002
 
           4 0
 s           4   1.00000000000000     
   51.0493630955799      -0.163120632101274     
   8.79112274068875      -0.199110245810007     
  0.706404222589298       0.318820477536558     
  0.269228134134116       0.127065041842404     
 p           4   1.00000000000000     
   5.82636561408000       0.737164515452096     
   1.51068960187200       0.682163716148503     
  0.532564832880000       0.357830539292537     
  0.212023236906000       5.398303027584788E-002
 
           5 0
 s           4   1.00000000000000     
   51.0493630955799      -0.163120632101274     
   8.79112274068875      -0.199110245810007     
  0.706404222589298       0.318820477536558     
  0.269228134134116       0.127065041842404     
 p           4   1.00000000000000     
   5.82636561408000       0.737164515452096     
   1.51068960187200       0.682163716148503     
  0.532564832880000       0.357830539292537     
  0.212023236906000       5.398303027584788E-002
 
           6 0
 s           4   1.00000000000000     
   51.0493630955799      -0.163120632101274     
   8.79112274068875      -0.199110245810007     
  0.706404222589298       0.318820477536558     
  0.269228134134116       0.127065041842404     
 p           4   1.00000000000000     
   5.82636561408000       0.737164515452096     
   1.51068960187200       0.682163716148503     
  0.532564832880000       0.357830539292537     
  0.212023236906000       5.398303027584788E-002
 
           7 0
 s           4   1.00000000000000     
   51.0493630955799      -0.163120632101274     
   8.79112274068875      -0.199110245810007     
  0.706404222589298       0.318820477536558     
  0.269228134134116       0.127065041842404     
 p           4   1.00000000000000     
   5.82636561408000       0.737164515452096     
   1.51068960187200       0.682163716148503     
  0.532564832880000       0.357830539292537     
  0.212023236906000       5.398303027584788E-002
 
           8 0
 s           4   1.00000000000000     
   51.0493630955799      -0.163120632101274     
   8.79112274068875      -0.199110245810007     
  0.706404222589298       0.318820477536558     
  0.269228134134116       0.127065041842404     
 p           4   1.00000000000000     
   5.82636561408000       0.737164515452096     
   1.51068960187200       0.682163716148503     
  0.532564832880000       0.357830539292537     
  0.212023236906000       5.398303027584788E-002
 
           9 0
 s           4   1.00000000000000     
   51.0493630955799      -0.163120632101274     
   8.79112274068875      -0.199110245810007     
  0.706404222589298       0.318820477536558     
  0.269228134134116       0.127065041842404     
 p           4   1.00000000000000     
   5.82636561408000       0.737164515452096     
   1.51068960187200       0.682163716148503     
  0.532564832880000       0.357830539292537     
  0.212023236906000       5.398303027584788E-002
 
          10 0
 s           4   1.00000000000000     
   51.0493630955799      -0.163120632101274     
   8.79112274068875      -0.199110245810007     
  0.706404222589298       0.318820477536558     
  0.269228134134116       0.127065041842404     
 p           4   1.00000000000000     
   5.82636561408000       0.737164515452096     
   1.51068960187200       0.682163716148503     
  0.532564832880000       0.357830539292537     
  0.212023236906000       5.398303027584788E-002
 
          11 0
 s           4   1.00000000000000     
   51.0493630955799      -0.163120632101274     
   8.79112274068875      -0.199110245810007     
  0.706404222589298       0.318820477536558     
  0.269228134134116       0.127065041842404     
 p           4   1.00000000000000     
   5.82636561408000       0.737164515452096     
   1.51068960187200       0.682163716148503     
  0.532564832880000       0.357830539292537     
  0.212023236906000       5.398303027584788E-002
 
          12 0
 s           4   1.00000000000000     
   51.0493630955799      -0.163120632101274     
   8.79112274068875      -0.199110245810007     
  0.706404222589298       0.318820477536558     
  0.269228134134116       0.127065041842404     
 p           4   1.00000000000000     
   5.82636561408000       0.737164515452096     
   1.51068960187200       0.682163716148503     
  0.532564832880000       0.357830539292537     
  0.212023236906000       5.398303027584788E-002
 
          13 0
 s           4   1.00000000000000     
   51.0493630955799      -0.163120632101274     
   8.79112274068875      -0.199110245810007     
  0.706404222589298       0.318820477536558     
  0.269228134134116       0.127065041842404     
 p           4   1.00000000000000     
   5.82636561408000       0.737164515452096     
   1.51068960187200       0.682163716148503     
  0.532564832880000       0.357830539292537     
  0.212023236906000       5.398303027584788E-002
 
          14 0
 s           4   1.00000000000000     
   51.0493630955799      -0.163120632101274     
   8.79112274068875      -0.199110245810007     
  0.706404222589298       0.318820477536558     
  0.269228134134116       0.127065041842404     
 p           4   1.00000000000000     
   5.82636561408000       0.737164515452096     
   1.51068960187200       0.682163716148503     
  0.532564832880000       0.357830539292537     
  0.212023236906000       5.398303027584788E-002
 
          15 0
 s           4   1.00000000000000     
   51.0493630955799      -0.163120632101274     
   8.79112274068875      -0.199110245810007     
  0.706404222589298       0.318820477536558     
  0.269228134134116       0.127065041842404     
 p           4   1.00000000000000     
   5.82636561408000       0.737164515452096     
   1.51068960187200       0.682163716148503     
  0.532564832880000       0.357830539292537     
  0.212023236906000       5.398303027584788E-002
 
          16 0
 s           4   1.00000000000000     
   51.0493630955799      -0.163120632101274     
   8.79112274068875      -0.199110245810007     
  0.706404222589298       0.318820477536558     
  0.269228134134116       0.127065041842404     
 p           4   1.00000000000000     
   5.82636561408000       0.737164515452096     
   1.51068960187200       0.682163716148503     
  0.532564832880000       0.357830539292537     
  0.212023236906000       5.398303027584788E-002
 
          17 0
 s           4   1.00000000000000     
   5.94059715667128      -8.937241731159805E-002
   1.67332031646937      -0.180826416098390     
  0.300052353376111       0.217239963388792     
  0.147626982610695       6.093036238655329E-002
 p           4   1.00000000000000     
   7.60402394306428      -0.258148203245547     
  0.785799530644415       0.290555694475872     
  0.355154539932778       0.228494836712103     
  0.171689541475341       3.379048730081900E-002
 d           3   1.00000000000000     
   1.51575937639239       0.574808919567051     
  0.475268595433768       0.261853961962925     
  0.185128831077629       3.488754942672512E-002
 
          18 0
 s           4   1.00000000000000     
   5.94059715667128      -8.937241731159805E-002
   1.67332031646937      -0.180826416098390     
  0.300052353376111       0.217239963388792     
  0.147626982610695       6.093036238655329E-002
 p           4   1.00000000000000     
   7.60402394306428      -0.258148203245547     
  0.785799530644415       0.290555694475872     
  0.355154539932778       0.228494836712103     
  0.171689541475341       3.379048730081900E-002
 d           3   1.00000000000000     
   1.51575937639239       0.574808919567051     
  0.475268595433768       0.261853961962925     
  0.185128831077629       3.488754942672512E-002
 
          19 0
 s           4   1.00000000000000     
   5.94059715667128      -8.937241731159805E-002
   1.67332031646937      -0.180826416098390     
  0.300052353376111       0.217239963388792     
  0.147626982610695       6.093036238655329E-002
 p           4   1.00000000000000     
   7.60402394306428      -0.258148203245547     
  0.785799530644415       0.290555694475872     
  0.355154539932778       0.228494836712103     
  0.171689541475341       3.379048730081900E-002
 d           3   1.00000000000000     
   1.51575937639239       0.574808919567051     
  0.475268595433768       0.261853961962925     
  0.185128831077629       3.488754942672512E-002
 
          20 0
 s           4   1.00000000000000     
   51.0493630955799      -0.163120632101274     
   8.79112274068875      -0.199110245810007     
  0.706404222589298       0.318820477536558     
  0.269228134134116       0.127065041842404     
 p           4   1.00000000000000     
   5.82636561408000       0.737164515452096     
   1.51068960187200       0.682163716148503     
  0.532564832880000       0.357830539292537     
  0.212023236906000       5.398303027584788E-002
 
          21 0
 s           3   1.00000000000000     
   3.37022769753360       0.273591105889083     
  0.613891182214980       0.264605406538605     
  0.166142911484160       8.246594753408230E-002
 
          22 0
 s           3   1.00000000000000     
   3.37022769753360       0.273591105889083     
  0.613891182214980       0.264605406538605     
  0.166142911484160       8.246594753408230E-002
 
          23 0
 s           3   1.00000000000000     
   3.37022769753360       0.273591105889083     
  0.613891182214980       0.264605406538605     
  0.166142911484160       8.246594753408230E-002
 
          24 0
 s           3   1.00000000000000     
   3.37022769753360       0.273591105889083     
  0.613891182214980       0.264605406538605     
  0.166142911484160       8.246594753408230E-002
 
          25 0
 s           3   1.00000000000000     
   3.37022769753360       0.273591105889083     
  0.613891182214980       0.264605406538605     
  0.166142911484160       8.246594753408230E-002
 
          26 0
 s           3   1.00000000000000     
   3.37022769753360       0.273591105889083     
  0.613891182214980       0.264605406538605     
  0.166142911484160       8.246594753408230E-002
 
          27 0
 s           3   1.00000000000000     
   3.37022769753360       0.273591105889083     
  0.613891182214980       0.264605406538605     
  0.166142911484160       8.246594753408230E-002
 
          28 0
 s           3   1.00000000000000     
   3.37022769753360       0.273591105889083     
  0.613891182214980       0.264605406538605     
  0.166142911484160       8.246594753408230E-002
 
          29 0
 s           3   1.00000000000000     
   3.37022769753360       0.273591105889083     
  0.613891182214980       0.264605406538605     
  0.166142911484160       8.246594753408230E-002
 
          30 0
 s           3   1.00000000000000     
   3.37022769753360       0.273591105889083     
  0.613891182214980       0.264605406538605     
  0.166142911484160       8.246594753408230E-002
 
[MO]
Sym=     1a
Ene=  -0.734746080470330     
Spin= Alpha
Occup=     2.00000000
           1  2.530366632226045E-003
           2  2.235614813585450E-004
           3 -7.893538553331726E-004
           4  1.727838215830265E-003
           5  1.083555357356609E-002
           6 -1.115580638895446E-003
           7 -6.723793560259341E-003
           8  4.020362122140671E-003
           9  0.105412637248916     
          10 -3.184996505041344E-005
          11  6.220975804964760E-004
          12 -8.726904543378674E-004
          13  2.849126858240307E-004
          14  1.980875630249939E-005
          15 -3.047214421265300E-004
          16 -2.339593652294835E-004
          17 -3.250461867665139E-004
          18 -2.707558174171549E-004
          19  2.135488375213975E-003
          20  6.552932955399397E-003
          21  1.263888555650666E-002
          22  7.847192312069930E-003
          23 -6.751913470533931E-002
          24  1.915320851622368E-002
          25  2.643448806731218E-002
          26  3.483035677396751E-002
          27 -1.587866269945654E-002
          28  3.354605492092849E-003
          29 -1.702601971791036E-004
          30  1.220733798649034E-002
          31 -1.477920491744296E-002
          32  7.638470733645976E-004
          33 -5.858829222019210E-003
          34  1.050604504909502E-002
          35 -5.971638746856239E-002
          36 -1.077444511726932E-002
          37 -4.722882127924736E-002
          38  2.489698282862484E-002
          39  5.972686568177315E-002
          40 -1.362758706105556E-002
          41 -4.612884979570930E-002
          42  2.560470876193364E-002
          43  1.478057371714832E-002
          44  5.058237592277912E-005
          45 -5.587609624143375E-003
          46  1.068433024101771E-002
          47  1.588446171537113E-002
          48  2.821134190806319E-003
          49  3.583992245733544E-005
          50  1.234688231203064E-002
          51  6.753942049353995E-002
          52  1.953037231742421E-002
          53  2.627746556296091E-002
          54  3.476514524454254E-002
          55 -2.148592874688846E-003
          56  7.314306251821633E-003
          57  1.232692959247868E-002
          58  7.669258174212444E-003
          59 -1.383623649524568E-003
          60  7.448623919789154E-004
          61  1.088812547299317E-003
          62  1.088868940281435E-003
          63 -2.531974894787747E-003
          64  4.608828605800978E-005
          65 -7.211539981065567E-004
          66  1.772389573643615E-003
          67 -1.084207322682438E-002
          68 -2.053646020297197E-003
          69 -6.357407180745643E-003
          70  4.249479859030774E-003
          71 -0.105472924478085     
          72  7.422563163525619E-005
          73  5.804352289982976E-004
          74 -8.989246967166033E-004
          75 -2.665249812299274E-004
          76 -4.333560274426418E-005
          77  3.098605839741916E-004
          78  2.635631423582712E-004
          79  3.117236431083998E-004
          80  2.665820939562435E-004
          81  0.628227216781895     
          82 -1.155077980388902E-003
          83  1.147326544178661E-003
          84 -7.808537100696531E-003
          85 -5.390478350226581E-004
          86  1.463029291269409E-003
          87 -9.239814562467508E-004
          88  1.419896106928267E-003
          89  3.875516445424439E-004
          90  6.854051759796039E-004
          91 -0.627969004171479     
          92 -1.774128415616941E-003
          93  1.386946007874231E-003
          94 -7.639881776999006E-003
          95  6.279416343897907E-004
          96 -1.516802077960306E-003
          97  8.888604435705158E-004
          98 -1.370416622837693E-003
          99 -3.158851500015537E-004
         100 -7.363670601835894E-004
         101  1.378082558256458E-003
         102  6.857034084114157E-004
         103  1.117097906368292E-003
         104  1.100388987489887E-003
         105 -3.170829732125143E-004
         106 -1.589706304048507E-003
         107  5.750383636537355E-004
         108 -4.088306625190145E-003
         109  4.100481975875422E-003
         110 -5.730441498043663E-004
         111 -5.333130670042676E-003
         112  3.172671229427871E-004
         113  1.590569896194229E-003
         114  5.339599184538822E-003
Sym=     2a
Ene=  -0.734402349801224     
Spin= Alpha
Occup=     2.00000000
           1 -3.576545399856293E-003
           2 -3.077476659805555E-004
           3  1.175374594707750E-003
           4 -2.484151446192680E-003
           5 -1.540180927015175E-002
           6  1.603951050732277E-003
           7  9.602987461319939E-003
           8 -5.705912096423337E-003
           9 -0.149697514363716     
          10  1.629693184460796E-004
          11 -6.824222800973660E-004
          12  1.412263715333090E-003
          13 -2.445451476447740E-004
          14 -1.574268597130539E-004
          15  4.019720073578279E-004
          16  1.334949451751896E-004
          17  3.124022290278367E-004
          18  2.100496165431216E-004
          19 -7.159350130154480E-003
          20 -7.777708821246900E-003
          21 -1.428651864199345E-002
          22 -1.023440223054525E-002
          23  6.580666952394942E-002
          24 -1.919528343182203E-002
          25 -2.685940995799552E-002
          26 -3.446056815019536E-002
          27  1.547481450487269E-002
          28 -3.434111998576976E-003
          29 -8.810288037388960E-005
          30 -1.214586840522375E-002
          31  1.714748646886400E-002
          32 -2.031645967579729E-003
          33  4.376253890592844E-003
          34 -1.287212138680323E-002
          35  7.782695673513806E-002
          36  3.269651221640592E-003
          37  2.927698056507942E-002
          38 -2.525101373823052E-002
          39  7.780896825629537E-002
          40 -6.534160793523180E-003
          41 -2.796274546763369E-002
          42  2.604037799151583E-002
          43  1.714860000172051E-002
          44  1.196932781629342E-003
          45 -4.045712826210156E-003
          46  1.308018192331815E-002
          47  1.546844904778012E-002
          48  2.911758863032817E-003
          49  2.900931574865711E-004
          50  1.227286802044157E-002
          51  6.577309139201595E-002
          52  1.961136672891812E-002
          53  2.666002827982685E-002
          54  3.435445250245224E-002
          55 -7.169336489726374E-003
          56  8.581512552312856E-003
          57  1.394282989589194E-002
          58  1.003959095309734E-002
          59 -2.518426814116108E-003
          60  9.090788521519038E-004
          61  1.029492930448645E-003
          62  1.973640549672790E-003
          63 -3.575935176727129E-003
          64  4.844902344215690E-005
          65 -1.074655342646401E-003
          66  2.547135574563519E-003
          67 -1.539867555124498E-002
          68 -2.938393849785109E-003
          69 -9.073505199503977E-003
          70  6.027507928795219E-003
          71 -0.149662335885085     
          72 -2.175032040625000E-005
          73  6.267898785615768E-004
          74 -1.446031413190886E-003
          75 -2.423566003781855E-004
          76 -1.678460466629760E-004
          77  4.102026470411615E-004
          78  1.475386113612011E-004
          79  2.933568893385568E-004
          80  2.132435041518438E-004
          81  0.617689339958791     
          82 -7.233511324039202E-004
          83  2.387489060583056E-003
          84 -8.161757242065637E-003
          85 -1.305367601787805E-003
          86  2.473527450490022E-003
          87 -1.168159848702217E-003
          88  2.444592833354476E-003
          89  2.469086462593497E-004
          90 -6.455982932479969E-005
          91  0.617935321034293     
          92  1.387542849383442E-003
          93 -2.645951584193534E-003
          94  7.988203515687643E-003
          95 -1.573311767204218E-003
          96  2.782718805801372E-003
          97 -1.209407038597154E-003
          98  2.071984410697350E-003
          99  3.732448704363933E-004
         100  1.042050751867404E-005
         101 -2.514281114668659E-003
         102 -9.046556314995860E-004
         103 -1.037757642305739E-003
         104 -1.972771881513407E-003
         105  4.346259365979498E-004
         106  2.247785399683222E-003
         107 -8.229038727802401E-005
         108 -6.944867107711931E-003
         109 -6.960368835992504E-003
         110 -7.923952740062026E-005
         111 -5.156481684007896E-003
         112  4.345303902107437E-004
         113  2.247207085779131E-003
         114 -5.167095325793768E-003
Sym=     3a
Ene=  -0.733599166659468     
Spin= Alpha
Occup=     2.00000000
           1 -1.487579725128107E-002
           2 -1.200579239022536E-003
           3  5.458369067571554E-003
           4 -1.072893896015417E-002
           5 -6.474569929940614E-002
           6  6.930586962592924E-003
           7  4.081748977297229E-002
           8 -2.387112143392461E-002
           9 -0.627883072364556     
          10  1.827567034317639E-003
          11 -9.095361353949568E-004
          12  7.605574306253815E-003
          13  5.929916327519246E-004
          14 -2.061728783525203E-003
          15  1.468737150773278E-003
          16 -1.498709533290918E-003
          17 -1.786874465078448E-004
          18 -9.059527283109554E-004
          19 -7.041552452891252E-002
          20 -1.764069921961738E-002
          21 -2.382832263863913E-002
          22 -3.421345744731052E-002
          23 -2.083623018563232E-002
          24 -4.287771121514721E-004
          25 -4.339081400806400E-003
          26  3.643325163991377E-003
          27 -3.853265724397246E-003
          28  4.156649935670142E-004
          29 -1.232750377985365E-003
          30  3.043515772233704E-003
          31 -2.393363371250634E-003
          32  1.119340589767038E-004
          33 -1.068098530389995E-003
          34  1.809360466863385E-003
          35 -9.874792242073185E-003
          36 -1.826977111280416E-003
          37 -7.913820859944048E-003
          38  4.084698482801210E-003
          39  9.966585525851310E-003
          40 -2.314726831032389E-003
          41 -7.762874033797718E-003
          42  4.233475492268513E-003
          43  2.413406801880862E-003
          44 -1.627871089730832E-005
          45 -1.024366781803935E-003
          46  1.857350134633070E-003
          47  3.881867536308456E-003
          48  1.964506364092490E-004
          49 -1.154812687615109E-003
          50  3.120440279460194E-003
          51  2.097198314869364E-002
          52 -1.040058784913208E-003
          53 -4.110011887865308E-003
          54  3.821604875799299E-003
          55  7.076972261867226E-002
          56 -1.842537108839056E-002
          57 -2.362692304596783E-002
          58 -3.423730663593796E-002
          59  1.600836776627208E-002
          60 -2.549507787424893E-003
          61  3.971894706682270E-004
          62 -1.264276248670292E-002
          63  1.494995512733605E-002
          64 -4.190433599972342E-005
          65  5.031684137943222E-003
          66 -1.106774420677610E-002
          67  6.507104829937162E-002
          68  1.263744139203214E-002
          69  3.878026235150545E-002
          70 -2.536284424500320E-002
          71  0.631021830340682     
          72  1.333421782940764E-003
          73 -7.199356427021474E-004
          74  7.763928405219460E-003
          75 -3.498153936345079E-004
          76  1.875545211348392E-003
          77 -1.525729817713884E-003
          78  1.734935912955838E-003
          79  2.640037498278896E-004
          80  7.965459537968245E-004
          81  0.104299404126946     
          82 -4.970763173698745E-004
          83 -2.834592391896866E-004
          84 -1.700943566166265E-003
          85 -4.296957946565377E-004
          86  5.299805147504474E-004
          87 -1.002847200939097E-004
          88  8.119782200236565E-004
          89  4.325743249807095E-004
          90  5.476166438858188E-004
          91 -0.103540602937403     
          92 -5.747017050156061E-004
          93 -2.536132159246057E-004
          94 -1.666738877159222E-003
          95  4.805506689092442E-004
          96 -5.799294537473386E-004
          97  9.937878483809434E-005
          98 -7.439915426860246E-004
          99 -4.357998047118436E-004
         100 -5.651911296352978E-004
         101 -1.592967169504989E-002
         102 -3.272430444108617E-003
         103  6.753526347443550E-004
         104 -1.239679225112622E-002
         105  1.670795155562415E-003
         106  9.341538194638437E-003
         107  5.913944106435487E-003
         108 -7.277132209785181E-004
         109  7.217373198604489E-004
         110 -5.953414269176191E-003
         111 -2.466272785931025E-003
         112 -1.679235176636157E-003
         113 -9.388090121898797E-003
         114  2.453039035779266E-003
Sym=     4a
Ene=  -0.733585543302526     
Spin= Alpha
Occup=     2.00000000
           1  1.473523485053070E-002
           2  1.187908629456397E-003
           3 -5.416191643412727E-003
           4  1.063403349206679E-002
           5  6.414330145859407E-002
           6 -6.869367849531037E-003
           7 -4.044524829620372E-002
           8  2.364671005837251E-002
           9  0.622016603840915     
          10 -1.829605138831757E-003
          11  8.684122832190022E-004
          12 -7.562626550304657E-003
          13 -6.152350959281456E-004
          14  2.067632975126885E-003
          15 -1.452397879198739E-003
          16  1.520606044789956E-003
          17  2.023261037704194E-004
          18  9.283974857632042E-004
          19  7.043568210722738E-002
          20  1.722417198775386E-002
          21  2.299670912647146E-002
          22  3.375019487390624E-002
          23  2.565857039144058E-002
          24 -9.415533699005460E-004
          25  2.431906291888944E-003
          26 -6.113045298015906E-003
          27  4.969713651186959E-003
          28 -6.824780943483519E-004
          29  1.207736204543871E-003
          30 -3.961328398670726E-003
          31  4.058529172264490E-003
          32 -4.609227342207720E-004
          33  1.179776974121137E-003
          34 -3.162536403397437E-003
          35  1.866740647233352E-002
          36  8.278889792943303E-004
          37  7.140267066776777E-003
          38 -6.046455440871368E-003
          39  1.861891095155254E-002
          40 -1.610300956176787E-003
          41 -6.785770568365142E-003
          42  6.219873176469130E-003
          43  4.048146182767146E-003
          44  2.502038634877678E-004
          45 -1.092096249040130E-003
          46  3.206768290891350E-003
          47  4.953487077780411E-003
          48  4.208128066136998E-004
          49 -1.103022863375783E-003
          50  4.012057333099508E-003
          51  2.555763278332741E-002
          52  3.610636962994667E-004
          53 -2.183687699031577E-003
          54  6.234126555778138E-003
          55  7.007610103512868E-002