      -----------------------------------------------------------      
     |                   =====================                   |     
     |                           x T B                           |     
     |                   =====================                   |     
     |                         S. Grimme                         |     
     |          Mulliken Center for Theoretical Chemistry        |     
     |                    University of Bonn                     |     
      -----------------------------------------------------------      

   * xtb version 6.5.0 (746241f) compiled by 'ehlert@majestix' on 2022-05-15

   xtb is free software: you can redistribute it and/or modify it under
   the terms of the GNU Lesser General Public License as published by
   the Free Software Foundation, either version 3 of the License, or
   (at your option) any later version.
   
   xtb is distributed in the hope that it will be useful,
   but WITHOUT ANY WARRANTY; without even the implied warranty of
   MERCHANTABILITY or FITNESS FOR A PARTICULAR PURPOSE.  See the
   GNU Lesser General Public License for more details.
   
   Cite this work as:
   * C. Bannwarth, E. Caldeweyher, S. Ehlert, A. Hansen, P. Pracht,
     J. Seibert, S. Spicher, S. Grimme, WIREs Comput. Mol. Sci., 2020, 11,
     e01493. DOI: 10.1002/wcms.1493
   
   for GFN2-xTB:
   * C. Bannwarth, S. Ehlert and S. Grimme., J. Chem. Theory Comput., 2019,
     15, 1652-1671. DOI: 10.1021/acs.jctc.8b01176
   for GFN1-xTB:
   * S. Grimme, C. Bannwarth, P. Shushkov, J. Chem. Theory Comput., 2017,
     13, 1989-2009. DOI: 10.1021/acs.jctc.7b00118
   for GFN0-xTB:
   * P. Pracht, E. Caldeweyher, S. Ehlert, S. Grimme, ChemRxiv, 2019, preprint.
     DOI: 10.26434/chemrxiv.8326202.v1
   for GFN-FF:
   * S. Spicher and S. Grimme, Angew. Chem. Int. Ed., 2020, 59, 15665-15673.
     DOI: 10.1002/anie.202004239
   
   for ALPB and GBSA implicit solvation:
   * S. Ehlert, M. Stahn, S. Spicher, S. Grimme, J. Chem. Theory Comput.,
     2021, 17, 4250-4261. DOI: 10.1021/acs.jctc.1c00471
   
   for DFT-D4:
   * E. Caldeweyher, C. Bannwarth and S. Grimme, J. Chem. Phys., 2017,
     147, 034112. DOI: 10.1063/1.4993215
   * E. Caldeweyher, S. Ehlert, A. Hansen, H. Neugebauer, S. Spicher,
     C. Bannwarth and S. Grimme, J. Chem. Phys., 2019, 150, 154122.
     DOI: 10.1063/1.5090222
   * E. Caldeweyher, J.-M. Mewes, S. Ehlert and S. Grimme, Phys. Chem. Chem. Phys.
     2020, 22, 8499-8512. DOI: 10.1039/D0CP00502A
   
   for sTDA-xTB:
   * S. Grimme and C. Bannwarth, J. Chem. Phys., 2016, 145, 054103.
     DOI: 10.1063/1.4959605
   
   in the mass-spec context:
   * V. Asgeirsson, C. Bauer and S. Grimme, Chem. Sci., 2017, 8, 4879.
     DOI: 10.1039/c7sc00601b
   * J. Koopman and S. Grimme, ACS Omega 2019, 4, 12, 15120-15133.
     DOI: 10.1021/acsomega.9b02011
   
   for metadynamics refer to:
   * S. Grimme, J. Chem. Theory Comput., 2019, 155, 2847-2862
     DOI: 10.1021/acs.jctc.9b00143
   
   for SPH calculations refer to:
   * S. Spicher and S. Grimme, J. Chem. Theory Comput., 2021, 17, 1701-1714
     DOI: 10.1021/acs.jctc.0c01306
   
   with help from (in alphabetical order)
   P. Atkinson, C. Bannwarth, F. Bohle, G. Brandenburg, E. Caldeweyher
   M. Checinski, S. Dohm, S. Ehlert, S. Ehrlich, I. Gerasimov, C. Hölzer
   A. Katbashev, J. Koopman, C. Lavigne, S. Lehtola, F. März, M. Müller,
   F. Musil, H. Neugebauer, J. Pisarek, C. Plett, P. Pracht, F. Pultar,
   J. Seibert, P. Shushkov, S. Spicher, M. Stahn, M. Steiner, T. Strunk,
   J. Stückrath, T. Rose, and J. Unsleber
   
 * started run on 2022/07/20 at 15:45:09.278     

           -------------------------------------------------
          |                Calculation Setup                |
           -------------------------------------------------

          program call               : xtb -c 0 -u 0 --opt --molden oligothiophene_n4.xyz
          coordinate file            : oligothiophene_n4.xyz
          omp threads                :                    16

   ID    Z sym.   atoms
    1    6 C      1, 2, 4-16, 20
    2   16 S      3, 17-19
    3    1 H      21-30

           -------------------------------------------------
          |                 G F N 2 - x T B                 |
           -------------------------------------------------

        Reference                      10.1021/acs.jctc.8b01176
      * Hamiltonian:
        H0-scaling (s, p, d)           1.850000    2.230000    2.230000
        zeta-weighting                 0.500000
      * Dispersion:
        s8                             2.700000
        a1                             0.520000
        a2                             5.000000
        s9                             5.000000
      * Repulsion:
        kExp                           1.500000    1.000000
        rExp                           1.000000
      * Coulomb:
        alpha                          2.000000
        third order                    shell-resolved
        anisotropic                    true
        a3                             3.000000
        a5                             4.000000
        cn-shift                       1.200000
        cn-exp                         4.000000
        max-rad                        5.000000


          ...................................................
          :                      SETUP                      :
          :.................................................:
          :  # basis functions                 114          :
          :  # atomic orbitals                 110          :
          :  # shells                           54          :
          :  # electrons                        98          :
          :  max. iterations                   250          :
          :  Hamiltonian                  GFN2-xTB          :
          :  restarted?                      false          :
          :  GBSA solvation                  false          :
          :  PC potential                    false          :
          :  electronic temp.          300.0000000     K    :
          :  accuracy                    1.0000000          :
          :  -> integral cutoff          0.2500000E+02      :
          :  -> integral neglect         0.1000000E-07      :
          :  -> SCF convergence          0.1000000E-05 Eh   :
          :  -> wf. convergence          0.1000000E-03 e    :
          :  Broyden damping             0.4000000          :
          ...................................................

 iter      E             dE          RMSdq      gap      omega  full diag
   1    -50.2220729 -0.502221E+02  0.782E+00    0.49       0.0  T
   2    -43.8427469  0.637933E+01  0.140E+01    0.09       1.0  T
   3    -51.6216487 -0.777890E+01  0.873E+00    0.74       1.0  T
   4    -50.5620347  0.105961E+01  0.813E+00    0.46       1.0  T
   5    -51.4839568 -0.921922E+00  0.514E+00    0.25       1.0  T
   6    -51.2494889  0.234468E+00  0.746E+00    0.11       1.0  T
   7    -51.2746189 -0.251300E-01  0.649E+00    0.13       1.0  T
   8    -51.7862154 -0.511597E+00  0.280E+00    0.25       1.0  T
   9    -51.8189022 -0.326868E-01  0.263E+00    0.13       1.0  T
  10    -51.7956233  0.232789E-01  0.240E+00    0.08       1.0  T
  11    -51.9608721 -0.165249E+00  0.151E+00    0.42       1.0  T
  12    -51.9627144 -0.184231E-02  0.139E+00    0.44       1.0  T
  13    -51.9724381 -0.972372E-02  0.108E+00    0.48       1.0  T
  14    -51.9923031 -0.198650E-01  0.520E-01    0.46       1.0  T
  15    -51.9959645 -0.366134E-02  0.273E-01    0.44       1.0  T
  16    -51.9978278 -0.186336E-02  0.241E-01    0.38       1.0  T
  17    -51.9983113 -0.483444E-03  0.213E-01    0.37       1.0  T
  18    -51.9985328 -0.221531E-03  0.164E-01    0.35       1.0  T
  19    -51.9985788 -0.460463E-04  0.725E-02    0.35       1.0  T
  20    -51.9985878 -0.897919E-05  0.528E-02    0.35       1.0  T
  21    -51.9985957 -0.789073E-05  0.384E-02    0.34       1.0  T
  22    -51.9985983 -0.258864E-05  0.307E-02    0.34       1.0  T
  23    -51.9985983  0.357640E-07  0.101E-02    0.34       1.8  T
  24    -51.9985987 -0.414890E-06  0.912E-03    0.34       2.0  T
  25    -51.9985992 -0.492522E-06  0.448E-03    0.34       4.1  T
  26    -51.9985996 -0.432613E-06  0.203E-03    0.34       9.0  T
  27    -51.9985996 -0.386369E-07  0.104E-03    0.34      17.5  T
  28    -51.9985997 -0.127609E-07  0.527E-04    0.34      34.7  T
  29    -51.9985997 -0.751016E-08  0.423E-04    0.34      43.1  T

   *** convergence criteria satisfied after 29 iterations ***

         #    Occupation            Energy/Eh            Energy/eV
      -------------------------------------------------------------
         1        2.0000           -0.8573669             -23.3301
       ...           ...                  ...                  ...
        43        2.0000           -0.4087730             -11.1233
        44        2.0000           -0.3815178             -10.3816
        45        2.0000           -0.3762520             -10.2383
        46        2.0000           -0.3678697             -10.0102
        47        2.0000           -0.3661764              -9.9642
        48        2.0000           -0.2315482              -6.3007
        49        1.9969           -0.2141440              -5.8272 (HOMO)
        50        0.0023           -0.2015863              -5.4854 (LUMO)
        51        0.0008           -0.2005297              -5.4567
        52        0.0000           -0.1943843              -5.2895
        53                         -0.1842951              -5.0149
        54                         -0.1828856              -4.9766
       ...                                ...                  ...
       110                         13.3741807             363.9300
      -------------------------------------------------------------
                  HL-Gap            0.0125577 Eh            0.3417 eV
             Fermi-level           -0.2080007 Eh           -5.6600 eV

 SCC (total)                   0 d,  0 h,  0 min,  0.052 sec
 SCC setup                      ...        0 min,  0.000 sec (  0.287%)
 Dispersion                     ...        0 min,  0.000 sec (  0.416%)
 classical contributions        ...        0 min,  0.000 sec (  0.027%)
 integral evaluation            ...        0 min,  0.002 sec (  3.874%)
 iterations                     ...        0 min,  0.046 sec ( 87.961%)
 molecular gradient             ...        0 min,  0.004 sec (  7.096%)
 printout                       ...        0 min,  0.000 sec (  0.305%)

         :::::::::::::::::::::::::::::::::::::::::::::::::::::
         ::                     SUMMARY                     ::
         :::::::::::::::::::::::::::::::::::::::::::::::::::::
         :: total energy             -45.782817668973 Eh    ::
         :: gradient norm              7.312811875979 Eh/a0 ::
         :: HOMO-LUMO gap              0.341711284518 eV    ::
         ::.................................................::
         :: SCC energy               -51.998599666100 Eh    ::
         :: -> isotropic ES            0.020261522731 Eh    ::
         :: -> anisotropic ES          0.002468627548 Eh    ::
         :: -> anisotropic XC          0.003907219633 Eh    ::
         :: -> dispersion             -0.039343676825 Eh    ::
         :: repulsion energy           6.216269232006 Eh    ::
         :: add. restraining           0.000000000000 Eh    ::
         :: total charge              -0.000000000004 e     ::
         :::::::::::::::::::::::::::::::::::::::::::::::::::::

      ----------------------------------------------------------- 
     |                   =====================                   |
     |                        A N C O P T                        |
     |                   =====================                   |
     |               Approximate Normal Coordinate               |
     |                Rational Function Optimizer                |
      ----------------------------------------------------------- 

          ...................................................
          :                      SETUP                      :
          :.................................................:
          :   optimization level            normal          :
          :   max. optcycles                   200          :
          :   ANC micro-cycles                  20          :
          :   degrees of freedom                84          :
          :.................................................:
          :   RF solver                   davidson          :
          :   write xtbopt.log                true          :
          :   linear?                        false          :
          :   energy convergence         0.5000000E-05 Eh   :
          :   grad. convergence          0.1000000E-02 Eh/α :
          :   maximium RF displ.         1.0000000          :
          :   Hlow (freq-cutoff)         0.1000000E-01      :
          :   Hmax (freq-cutoff)         5.0000000          :
          :   S6 in model hess.         20.0000000          :
          ...................................................

generating ANC from model Hessian ...
Using Lindh-Hessian (1995)
 Shifting diagonal of input Hessian by   8.043132711949046E-003
 Lowest  eigenvalues of input Hessian
    0.000000    0.000000    0.000000    0.000000    0.000000    0.000000
    0.010000    0.011053    0.015450    0.017677    0.019042    0.020407
    0.031924    0.047571    0.052842    0.053754    0.059142    0.066813
 Highest eigenvalues
    6.865981    6.874719   11.373790   11.485394   19.938510   20.276683
 

........................................................................
.............................. CYCLE    1 ..............................
........................................................................
   1    -51.9985997 -0.519986E+02  0.128E-04    0.34       0.0  T
   2    -51.9985997  0.298677E-09  0.290E-04    0.34      62.9  T
   3    -51.9985997 -0.440217E-09  0.147E-04    0.34     124.4  T
     SCC iter.                  ...        0 min,  0.005 sec
     gradient                   ...        0 min,  0.004 sec
 * total energy  :   -45.7828177 Eh     change       -0.1876209E-08 Eh
   gradient norm :     7.3128118 Eh/α   predicted     0.0000000E+00 (-100.00%)
   displ. norm   :     0.7435489 α      lambda       -0.5404836E+01
   maximum displ.:     0.4019020 α      in ANC's #81, #65, #76, ...

........................................................................
.............................. CYCLE    2 ..............................
........................................................................
   1    -52.3372334 -0.523372E+02  0.232E+00    0.84       0.0  T
   2    -52.3583401 -0.211066E-01  0.139E+00    0.28       1.0  T
   3    -52.3594299 -0.108982E-02  0.802E-01    0.50       1.0  T
   4    -52.3636385 -0.420867E-02  0.311E-01    0.34       1.0  T
   5    -52.3652715 -0.163295E-02  0.981E-02    0.35       1.0  T
   6    -52.3653360 -0.645379E-04  0.326E-02    0.37       1.0  T
   7    -52.3653414 -0.534760E-05  0.192E-02    0.37       1.0  T
   8    -52.3653449 -0.350182E-05  0.839E-03    0.37       2.2  T
   9    -52.3653457 -0.807739E-06  0.414E-03    0.37       4.4  T
  10    -52.3653458 -0.159558E-06  0.132E-03    0.37      13.8  T
  11    -52.3653458 -0.319431E-08  0.450E-04    0.37      40.6  T
  12    -52.3653458 -0.668663E-09  0.268E-04    0.37      68.1  T
     SCC iter.                  ...        0 min,  0.016 sec
     gradient                   ...        0 min,  0.004 sec
 * total energy  :   -49.3199941 Eh     change       -0.3537176E+01 Eh
   gradient norm :     2.9560494 Eh/α   predicted    -0.4197543E+01 (  18.67%)
   displ. norm   :     0.5184237 α      lambda       -0.1441510E+01
   maximum displ.:     0.2460730 α      in ANC's #70, #62, #76, ...

........................................................................
.............................. CYCLE    3 ..............................
........................................................................
   1    -52.5606471 -0.525606E+02  0.196E+00    1.02       0.0  T
   2    -52.5649290 -0.428191E-02  0.101E+00    0.88       1.0  T
   3    -52.5633879  0.154110E-02  0.438E-01    0.91       1.0  T
   4    -52.5655663 -0.217846E-02  0.225E-01    0.88       1.0  T
   5    -52.5661134 -0.547037E-03  0.897E-02    0.87       1.0  T
   6    -52.5662516 -0.138255E-03  0.189E-02    0.88       1.0  T
   7    -52.5662562 -0.460105E-05  0.887E-03    0.88       2.1  T
   8    -52.5662573 -0.109711E-05  0.315E-03    0.88       5.8  T
   9    -52.5662573 -0.128455E-07  0.141E-03    0.88      13.0  T
  10    -52.5662574 -0.220778E-07  0.410E-04    0.88      44.6  T
  11    -52.5662574 -0.729372E-10  0.163E-04    0.88     111.9  T
     SCC iter.                  ...        0 min,  0.015 sec
     gradient                   ...        0 min,  0.004 sec
 * total energy  :   -50.4222402 Eh     change       -0.1102246E+01 Eh
   gradient norm :     1.7220424 Eh/α   predicted    -0.9144692E+00 ( -17.04%)
   displ. norm   :     0.6054632 α      lambda       -0.9731687E+00
   maximum displ.:     0.3823631 α      in ANC's #70, #81, #62, ...

........................................................................
.............................. CYCLE    4 ..............................
........................................................................
   1    -52.7633539 -0.527634E+02  0.243E+00    1.89       0.0  T
   2    -52.7678246 -0.447068E-02  0.123E+00    1.77       1.0  T
   3    -52.7644536  0.337099E-02  0.559E-01    1.85       1.0  T
   4    -52.7695419 -0.508834E-02  0.258E-01    1.80       1.0  T
   5    -52.7698380 -0.296071E-03  0.108E-01    1.78       1.0  T
   6    -52.7700954 -0.257365E-03  0.176E-02    1.79       1.0  T
   7    -52.7700971 -0.173878E-05  0.112E-02    1.79       1.6  T
   8    -52.7700984 -0.132204E-05  0.471E-03    1.79       3.9  T
   9    -52.7700986 -0.142289E-06  0.199E-03    1.79       9.2  T
  10    -52.7700986 -0.217793E-07  0.717E-04    1.79      25.5  T
  11    -52.7700986 -0.427741E-08  0.318E-04    1.79      57.4  T
     SCC iter.                  ...        0 min,  0.015 sec
     gradient                   ...        0 min,  0.004 sec
 * total energy  :   -51.1902534 Eh     change       -0.7680132E+00 Eh
   gradient norm :     1.0340953 Eh/α   predicted    -0.6649591E+00 ( -13.42%)
   displ. norm   :     0.6305323 α      lambda       -0.6153085E+00
   maximum displ.:     0.4292318 α      in ANC's #70, #10, #81, ...

........................................................................
.............................. CYCLE    5 ..............................
........................................................................
   1    -52.8836583 -0.528837E+02  0.192E+00    2.34       0.0  T
   2    -52.8859788 -0.232054E-02  0.110E+00    2.35       1.0  T
   3    -52.8804828  0.549603E-02  0.553E-01    2.37       1.0  T
   4    -52.8877080 -0.722527E-02  0.196E-01    2.36       1.0  T
   5    -52.8877714 -0.633653E-04  0.905E-02    2.36       1.0  T
   6    -52.8879880 -0.216570E-03  0.148E-02    2.36       1.2  T
   7    -52.8879886 -0.641820E-06  0.980E-03    2.36       1.9  T
   8    -52.8879894 -0.808054E-06  0.408E-03    2.36       4.5  T
   9    -52.8879896 -0.162826E-06  0.138E-03    2.36      13.3  T
  10    -52.8879896 -0.146800E-07  0.405E-04    2.36      45.1  T
  11    -52.8879896 -0.132844E-08  0.234E-04    2.36      77.9  T
     SCC iter.                  ...        0 min,  0.015 sec
     gradient                   ...        0 min,  0.004 sec
 * total energy  :   -51.6602756 Eh     change       -0.4700222E+00 Eh
   gradient norm :     0.6117840 Eh/α   predicted    -0.4299694E+00 (  -8.52%)
   displ. norm   :     0.5853771 α      lambda       -0.3113329E+00
   maximum displ.:     0.3684814 α      in ANC's #70, #10, #11, ...

........................................................................
.............................. CYCLE    6 ..............................
........................................................................
   1    -52.9119026 -0.529119E+02  0.125E+00    2.03       0.0  T
   2    -52.9132857 -0.138308E-02  0.794E-01    2.06       1.0  T
   3    -52.9099136  0.337214E-02  0.432E-01    2.05       1.0  T
   4    -52.9146365 -0.472295E-02  0.946E-02    2.06       1.0  T
   5    -52.9146671 -0.305890E-04  0.542E-02    2.06       1.0  T
   6    -52.9147294 -0.622815E-04  0.127E-02    2.06       1.4  T
   7    -52.9147298 -0.390047E-06  0.752E-03    2.06       2.4  T
   8    -52.9147304 -0.647584E-06  0.380E-03    2.06       4.8  T
   9    -52.9147306 -0.145205E-06  0.137E-03    2.06      13.4  T
  10    -52.9147306 -0.302623E-07  0.406E-04    2.06      45.0  T
  11    -52.9147306 -0.185327E-08  0.159E-04    2.06     114.6  T
     SCC iter.                  ...        0 min,  0.015 sec
     gradient                   ...        0 min,  0.004 sec
 * total energy  :   -51.8929735 Eh     change       -0.2326979E+00 Eh
   gradient norm :     0.3871814 Eh/α   predicted    -0.2090082E+00 ( -10.18%)
   displ. norm   :     0.5884921 α      lambda       -0.1558272E+00
   maximum displ.:     0.3216809 α      in ANC's #10, #70, #11, ...

........................................................................
.............................. CYCLE    7 ..............................
........................................................................
   1    -52.9113199 -0.529113E+02  0.842E-01    1.87       0.0  T
   2    -52.9120124 -0.692475E-03  0.559E-01    1.90       1.0  T
   3    -52.9103169  0.169549E-02  0.317E-01    1.89       1.0  T
   4    -52.9129102 -0.259332E-02  0.644E-02    1.89       1.0  T
   5    -52.9129456 -0.353822E-04  0.381E-02    1.89       1.0  T
   6    -52.9129735 -0.278868E-04  0.116E-02    1.89       1.6  T
   7    -52.9129739 -0.387952E-06  0.680E-03    1.89       2.7  T
   8    -52.9129750 -0.109116E-05  0.278E-03    1.89       6.6  T
   9    -52.9129750 -0.321380E-07  0.975E-04    1.89      18.7  T
  10    -52.9129750 -0.119977E-07  0.354E-04    1.89      51.6  T
     SCC iter.                  ...        0 min,  0.014 sec
     gradient                   ...        0 min,  0.004 sec
 * total energy  :   -52.0129385 Eh     change       -0.1199650E+00 Eh
   gradient norm :     0.2905384 Eh/α   predicted    -0.1048971E+00 ( -12.56%)
   displ. norm   :     0.6417393 α      lambda       -0.9654313E-01
   maximum displ.:     0.3918042 α      in ANC's #10, #4, #11, ...

........................................................................
.............................. CYCLE    8 ..............................
........................................................................
   1    -52.9158105 -0.529158E+02  0.633E-01    1.79       0.0  T
   2    -52.9160176 -0.207053E-03  0.425E-01    1.81       1.0  T
   3    -52.9145412  0.147640E-02  0.273E-01    1.80       1.0  T
   4    -52.9166368 -0.209566E-02  0.573E-02    1.80       1.0  T
   5    -52.9166832 -0.463977E-04  0.322E-02    1.80       1.0  T
   6    -52.9167027 -0.194426E-04  0.957E-03    1.80       1.9  T
   7    -52.9167037 -0.101568E-05  0.550E-03    1.80       3.3  T
   8    -52.9167043 -0.598898E-06  0.220E-03    1.80       8.3  T
   9    -52.9167043 -0.825840E-08  0.626E-04    1.80      29.2  T
  10    -52.9167043 -0.300436E-08  0.349E-04    1.80      52.3  T
     SCC iter.                  ...        0 min,  0.014 sec
     gradient                   ...        0 min,  0.004 sec
 * total energy  :   -52.0907417 Eh     change       -0.7780322E-01 Eh
   gradient norm :     0.2447312 Eh/α   predicted    -0.6815122E-01 ( -12.41%)
   displ. norm   :     0.6871755 α      lambda       -0.7288218E-01
   maximum displ.:     0.4094054 α      in ANC's #10, #4, #11, ...

........................................................................
.............................. CYCLE    9 ..............................
........................................................................
   1    -52.9314044 -0.529314E+02  0.534E-01    1.76       0.0  T
   2    -52.9314228 -0.183483E-04  0.351E-01    1.77       1.0  T
   3    -52.9299930  0.142976E-02  0.255E-01    1.76       1.0  T
   4    -52.9318856 -0.189258E-02  0.442E-02    1.76       1.0  T
   5    -52.9318949 -0.934841E-05  0.291E-02    1.76       1.0  T
   6    -52.9319108 -0.158497E-04  0.769E-03    1.76       2.4  T
   7    -52.9319121 -0.131633E-05  0.386E-03    1.76       4.7  T
   8    -52.9319121 -0.285826E-07  0.172E-03    1.76      10.6  T
   9    -52.9319122 -0.454039E-07  0.643E-04    1.76      28.4  T
  10    -52.9319122 -0.417942E-08  0.212E-04    1.76      86.2  T
     SCC iter.                  ...        0 min,  0.014 sec
     gradient                   ...        0 min,  0.004 sec
 * total energy  :   -52.1512662 Eh     change       -0.6052447E-01 Eh
   gradient norm :     0.2072403 Eh/α   predicted    -0.5364907E-01 ( -11.36%)
   displ. norm   :     0.6958466 α      lambda       -0.6016626E-01
   maximum displ.:     0.3845716 α      in ANC's #4, #10, #11, ...

........................................................................
.............................. CYCLE   10 ..............................
........................................................................
   1    -52.9574857 -0.529575E+02  0.525E-01    1.79       0.0  T
   2    -52.9575895 -0.103794E-03  0.312E-01    1.78       1.0  T
   3    -52.9565220  0.106741E-02  0.219E-01    1.78       1.0  T
   4    -52.9578244 -0.130234E-02  0.455E-02    1.78       1.0  T
   5    -52.9578301 -0.567308E-05  0.232E-02    1.78       1.0  T
   6    -52.9578347 -0.462899E-05  0.112E-02    1.78       1.6  T
   7    -52.9578374 -0.272645E-05  0.461E-03    1.78       4.0  T
   8    -52.9578375 -0.957876E-07  0.271E-03    1.78       6.7  T
   9    -52.9578376 -0.775977E-07  0.847E-04    1.78      21.6  T
  10    -52.9578376 -0.131409E-07  0.308E-04    1.78      59.3  T
     SCC iter.                  ...        0 min,  0.014 sec
     gradient                   ...        0 min,  0.004 sec
 * total energy  :   -52.2010528 Eh     change       -0.4978665E-01 Eh
   gradient norm :     0.1616628 Eh/α   predicted    -0.4464945E-01 ( -10.32%)
   displ. norm   :     0.6643697 α      lambda       -0.4726184E-01
   maximum displ.:     0.4118939 α      in ANC's #4, #10, #11, ...

........................................................................
.............................. CYCLE   11 ..............................
........................................................................
   1    -52.9924402 -0.529924E+02  0.566E-01    1.86       0.0  T
   2    -52.9927465 -0.306269E-03  0.300E-01    1.84       1.0  T
   3    -52.9923807  0.365815E-03  0.158E-01    1.84       1.0  T
   4    -52.9928306 -0.449943E-03  0.585E-02    1.84       1.0  T
   5    -52.9928652 -0.345728E-04  0.233E-02    1.84       1.0  T
   6    -52.9928671 -0.193137E-05  0.127E-02    1.84       1.4  T
   7    -52.9928705 -0.341304E-05  0.463E-03    1.84       3.9  T
   8    -52.9928704  0.111831E-06  0.288E-03    1.84       6.3  T
   9    -52.9928706 -0.176709E-06  0.946E-04    1.84      19.3  T
  10    -52.9928706 -0.162079E-07  0.314E-04    1.84      58.1  T
     SCC iter.                  ...        0 min,  0.014 sec
     gradient                   ...        0 min,  0.004 sec
 * total energy  :   -52.2384660 Eh     change       -0.3741322E-01 Eh
   gradient norm :     0.1127363 Eh/α   predicted    -0.3406148E-01 (  -8.96%)
   displ. norm   :     0.6260041 α      lambda       -0.3057848E-01
   maximum displ.:     0.4595591 α      in ANC's #4, #10, #20, ...

........................................................................
.............................. CYCLE   12 ..............................
........................................................................
   1    -53.0321385 -0.530321E+02  0.528E-01    1.92       0.0  T
   2    -53.0324338 -0.295321E-03  0.271E-01    1.90       1.0  T
   3    -53.0322095  0.224356E-03  0.133E-01    1.91       1.0  T
   4    -53.0325144 -0.304919E-03  0.492E-02    1.91       1.0  T
   5    -53.0325357 -0.213283E-04  0.185E-02    1.91       1.0  T
   6    -53.0325359 -0.141844E-06  0.111E-02    1.91       1.6  T
   7    -53.0325385 -0.265334E-05  0.380E-03    1.91       4.8  T
   8    -53.0325385  0.131329E-07  0.165E-03    1.91      11.1  T
   9    -53.0325385 -0.385949E-07  0.500E-04    1.91      36.5  T
  10    -53.0325385 -0.970871E-09  0.291E-04    1.91      62.7  T
     SCC iter.                  ...        0 min,  0.015 sec
     gradient                   ...        0 min,  0.004 sec
 * total energy  :   -52.2617512 Eh     change       -0.2328521E-01 Eh
   gradient norm :     0.0870689 Eh/α   predicted    -0.2128082E-01 (  -8.61%)
   displ. norm   :     0.6215336 α      lambda       -0.1802264E-01
   maximum displ.:     0.5159456 α      in ANC's #4, #3, #20, ...

........................................................................
.............................. CYCLE   13 ..............................
........................................................................
   1    -53.0659647 -0.530660E+02  0.390E-01    1.93       0.0  T
   2    -53.0660699 -0.105183E-03  0.206E-01    1.92       1.0  T
   3    -53.0659459  0.124056E-03  0.920E-02    1.92       1.0  T
   4    -53.0661028 -0.156972E-03  0.340E-02    1.92       1.0  T
   5    -53.0661102 -0.731229E-05  0.138E-02    1.92       1.3  T
   6    -53.0661114 -0.128460E-05  0.670E-03    1.92       2.7  T
   7    -53.0661123 -0.864432E-06  0.262E-03    1.92       7.0  T
   8    -53.0661123 -0.284074E-08  0.122E-03    1.92      15.0  T
   9    -53.0661123 -0.147666E-07  0.248E-04    1.92      73.5  T
  10    -53.0661123 -0.765539E-10  0.147E-04    1.92     123.8  T
     SCC iter.                  ...        0 min,  0.014 sec
     gradient                   ...        0 min,  0.003 sec
 * total energy  :   -52.2761148 Eh     change       -0.1436355E-01 Eh
   gradient norm :     0.0804435 Eh/α   predicted    -0.1249247E-01 ( -13.03%)
   displ. norm   :     0.6478092 α      lambda       -0.1403848E-01
   maximum displ.:     0.5505641 α      in ANC's #4, #3, #20, ...

........................................................................
.............................. CYCLE   14 ..............................
........................................................................
   1    -53.0906192 -0.530906E+02  0.314E-01    1.87       0.0  T
   2    -53.0906609 -0.417296E-04  0.176E-01    1.88       1.0  T
   3    -53.0905679  0.930466E-04  0.715E-02    1.88       1.0  T
   4    -53.0906781 -0.110244E-03  0.253E-02    1.88       1.0  T
   5    -53.0906820 -0.389879E-05  0.120E-02    1.88       1.5  T
   6    -53.0906842 -0.214654E-05  0.391E-03    1.88       4.7  T
   7    -53.0906844 -0.179561E-06  0.219E-03    1.88       8.3  T
   8    -53.0906844 -0.189593E-07  0.736E-04    1.88      24.8  T
   9    -53.0906844 -0.375945E-08  0.297E-04    1.88      61.5  T
     SCC iter.                  ...        0 min,  0.012 sec
     gradient                   ...        0 min,  0.004 sec
 * total energy  :   -52.2876230 Eh     change       -0.1150821E-01 Eh
   gradient norm :     0.0631158 Eh/α   predicted    -0.9964913E-02 ( -13.41%)
   displ. norm   :     0.6481032 α      lambda       -0.1096635E-01
   maximum displ.:     0.5568410 α      in ANC's #4, #3, #20, ...

........................................................................
.............................. CYCLE   15 ..............................
........................................................................
   1    -53.1041166 -0.531041E+02  0.278E-01    1.79       0.0  T
   2    -53.1041769 -0.603022E-04  0.162E-01    1.80       1.0  T
   3    -53.1040810  0.958986E-04  0.715E-02    1.80       1.0  T
   4    -53.1042011 -0.120115E-03  0.217E-02    1.80       1.0  T
   5    -53.1042056 -0.453208E-05  0.118E-02    1.80       1.5  T
   6    -53.1042082 -0.251590E-05  0.429E-03    1.80       4.3  T
   7    -53.1042085 -0.288104E-06  0.185E-03    1.80       9.9  T
   8    -53.1042085 -0.133961E-07  0.854E-04    1.80      21.4  T
   9    -53.1042085 -0.246294E-08  0.274E-04    1.80      66.6  T
     SCC iter.                  ...        0 min,  0.013 sec
     gradient                   ...        0 min,  0.004 sec
 * total energy  :   -52.2960676 Eh     change       -0.8444631E-02 Eh
   gradient norm :     0.0387866 Eh/α   predicted    -0.7786331E-02 (  -7.80%)
   displ. norm   :     0.5760061 α      lambda       -0.5703948E-02
   maximum displ.:     0.5139329 α      in ANC's #4, #3, #20, ...

........................................................................
.............................. CYCLE   16 ..............................
........................................................................
   1    -53.1072076 -0.531072E+02  0.220E-01    1.74       0.0  T
   2    -53.1072580 -0.504700E-04  0.130E-01    1.75       1.0  T
   3    -53.1071829  0.751858E-04  0.649E-02    1.75       1.0  T
   4    -53.1072818 -0.989017E-04  0.194E-02    1.75       1.0  T
   5    -53.1072856 -0.387806E-05  0.110E-02    1.75       1.7  T
   6    -53.1072881 -0.247707E-05  0.325E-03    1.75       5.6  T
   7    -53.1072882 -0.106338E-06  0.141E-03    1.75      13.0  T
   8    -53.1072882 -0.100656E-07  0.729E-04    1.75      25.0  T
   9    -53.1072882 -0.134435E-08  0.239E-04    1.75      76.3  T
     SCC iter.                  ...        0 min,  0.012 sec
     gradient                   ...        0 min,  0.004 sec
 * total energy  :   -52.3001966 Eh     change       -0.4129011E-02 Eh
   gradient norm :     0.0421530 Eh/α   predicted    -0.3798231E-02 (  -8.01%)
   displ. norm   :     0.4613096 α      lambda       -0.2664338E-02
   maximum displ.:     0.4272673 α      in ANC's #4, #3, #11, ...

........................................................................
.............................. CYCLE   17 ..............................
........................................................................
   1    -53.1061630 -0.531062E+02  0.147E-01    1.74       0.0  T
   2    -53.1061811 -0.181251E-04  0.865E-02    1.74       1.0  T
   3    -53.1061342  0.468709E-04  0.481E-02    1.74       1.0  T
   4    -53.1061938 -0.596270E-04  0.140E-02    1.74       1.3  T
   5    -53.1061954 -0.157863E-05  0.759E-03    1.74       2.4  T
   6    -53.1061965 -0.107977E-05  0.203E-03    1.74       9.0  T
   7    -53.1061965 -0.374843E-07  0.914E-04    1.74      20.0  T
   8    -53.1061965 -0.240298E-08  0.530E-04    1.74      34.4  T
     SCC iter.                  ...        0 min,  0.011 sec
     gradient                   ...        0 min,  0.003 sec
 * total energy  :   -52.3022333 Eh     change       -0.2036651E-02 Eh
   gradient norm :     0.0499948 Eh/α   predicted    -0.1615725E-02 ( -20.67%)
   displ. norm   :     0.4507695 α      lambda       -0.2292529E-02
   maximum displ.:     0.4251336 α      in ANC's #4, #3, #1, ...

........................................................................
.............................. CYCLE   18 ..............................
........................................................................
   1    -53.1042878 -0.531043E+02  0.122E-01    1.76       0.0  T
   2    -53.1042971 -0.936699E-05  0.688E-02    1.76       1.0  T
   3    -53.1042642  0.329022E-04  0.395E-02    1.76       1.0  T
   4    -53.1043043 -0.401039E-04  0.113E-02    1.76       1.6  T
   5    -53.1043052 -0.870582E-06  0.484E-03    1.76       3.8  T
   6    -53.1043055 -0.331225E-06  0.169E-03    1.76      10.8  T
   7    -53.1043056 -0.469704E-07  0.685E-04    1.76      26.7  T
   8    -53.1043056  0.721499E-09  0.479E-04    1.76      38.1  T
     SCC iter.                  ...        0 min,  0.011 sec
     gradient                   ...        0 min,  0.004 sec
 * total energy  :   -52.3040842 Eh     change       -0.1850899E-02 Eh
   gradient norm :     0.0500759 Eh/α   predicted    -0.1379184E-02 ( -25.49%)
   displ. norm   :     0.4799853 α      lambda       -0.2700580E-02
   maximum displ.:     0.4513475 α      in ANC's #4, #1, #3, ...

........................................................................
.............................. CYCLE   19 ..............................
........................................................................
   1    -53.1028760 -0.531029E+02  0.119E-01    1.80       0.0  T
   2    -53.1028872 -0.112005E-04  0.626E-02    1.80       1.0  T
   3    -53.1028731  0.140453E-04  0.300E-02    1.80       1.0  T
   4    -53.1028899 -0.168142E-04  0.114E-02    1.80       1.6  T
   5    -53.1028914 -0.148539E-05  0.407E-03    1.80       4.5  T
   6    -53.1028916 -0.155949E-06  0.140E-03    1.80      13.0  T
   7    -53.1028916 -0.401857E-07  0.555E-04    1.80      32.9  T
   8    -53.1028916 -0.269313E-08  0.354E-04    1.80      51.5  T
     SCC iter.                  ...        0 min,  0.011 sec
     gradient                   ...        0 min,  0.003 sec
 * total energy  :   -52.3062453 Eh     change       -0.2161095E-02 Eh
   gradient norm :     0.0412143 Eh/α   predicted    -0.1661404E-02 ( -23.12%)
   displ. norm   :     0.4544931 α      lambda       -0.2670497E-02
   maximum displ.:     0.4138558 α      in ANC's #4, #1, #22, ...

........................................................................
.............................. CYCLE   20 ..............................
........................................................................
   1    -53.1029139 -0.531029E+02  0.118E-01    1.84       0.0  T
   2    -53.1029309 -0.170209E-04  0.632E-02    1.84       1.0  T
   3    -53.1029209  0.100790E-04  0.297E-02    1.84       1.0  T
   4    -53.1029369 -0.160848E-04  0.908E-03    1.84       2.0  T
   5    -53.1029378 -0.828108E-06  0.364E-03    1.84       5.0  T
   6    -53.1029379 -0.125824E-06  0.163E-03    1.84      11.2  T
   7    -53.1029380 -0.713540E-07  0.511E-04    1.84      35.7  T
   8    -53.1029380 -0.350808E-08  0.263E-04    1.84      69.4  T
     SCC iter.                  ...        0 min,  0.011 sec
     gradient                   ...        0 min,  0.003 sec
 * total energy  :   -52.3082647 Eh     change       -0.2019440E-02 Eh
   gradient norm :     0.0306613 Eh/α   predicted    -0.1611074E-02 ( -20.22%)
   displ. norm   :     0.4011597 α      lambda       -0.1916015E-02
   maximum displ.:     0.3459297 α      in ANC's #4, #1, #22, ...
 * RMSD in coord.:     1.4820516 α      energy gain  -0.6525447E+01 Eh

generating ANC from model Hessian ...
Using Lindh-Hessian (1995)
 Shifting diagonal of input Hessian by   9.763018179276774E-003
 Lowest  eigenvalues of input Hessian
    0.000000    0.000000    0.000000    0.000000    0.000000    0.000000
    0.010000    0.010688    0.011122    0.011222    0.013131    0.014077
    0.014790    0.016219    0.021317    0.021761    0.023968    0.024049
 Highest eigenvalues
    1.834426    1.907070    1.909480    1.976277    2.008946    2.020964
 

........................................................................
.............................. CYCLE   21 ..............................
........................................................................
   1    -53.1030683 -0.531031E+02  0.110E-01    1.85       0.0  T
   2    -53.1030797 -0.114472E-04  0.631E-02    1.85       1.0  T
   3    -53.1030612  0.185576E-04  0.329E-02    1.85       1.0  T
   4    -53.1030870 -0.258188E-04  0.861E-03    1.85       2.1  T
   5    -53.1030878 -0.788345E-06  0.454E-03    1.85       4.0  T
   6    -53.1030881 -0.356613E-06  0.166E-03    1.85      11.0  T
   7    -53.1030882 -0.503218E-07  0.592E-04    1.85      30.9  T
   8    -53.1030882 -0.615621E-09  0.353E-04    1.85      51.7  T
     SCC iter.                  ...        0 min,  0.011 sec
     gradient                   ...        0 min,  0.003 sec
 * total energy  :   -52.3096870 Eh     change       -0.1422329E-02 Eh
   gradient norm :     0.0272169 Eh/α   predicted     0.0000000E+00 (-100.00%)
   displ. norm   :     0.2177346 α      lambda       -0.2246358E-02
   maximum displ.:     0.1609270 α      in ANC's #13, #5, #12, ...

........................................................................
.............................. CYCLE   22 ..............................
........................................................................
   1    -53.1088770 -0.531089E+02  0.131E-01    1.82       0.0  T
   2    -53.1088809 -0.389911E-05  0.781E-02    1.82       1.0  T
   3    -53.1088156  0.652852E-04  0.508E-02    1.82       1.0  T
   4    -53.1088937 -0.780721E-04  0.103E-02    1.82       1.8  T
   5    -53.1088939 -0.200227E-06  0.438E-03    1.82       4.2  T
   6    -53.1088940 -0.102861E-06  0.241E-03    1.82       7.6  T
   7    -53.1088941 -0.671053E-07  0.140E-03    1.82      13.0  T
   8    -53.1088941  0.243276E-09  0.576E-04    1.82      31.7  T
   9    -53.1088941 -0.758138E-08  0.157E-04    1.82     116.4  T
     SCC iter.                  ...        0 min,  0.012 sec
     gradient                   ...        0 min,  0.003 sec
 * total energy  :   -52.3113515 Eh     change       -0.1664458E-02 Eh
   gradient norm :     0.0143924 Eh/α   predicted    -0.1176500E-02 ( -29.32%)
   displ. norm   :     0.2899886 α      lambda       -0.1375852E-02
   maximum displ.:     0.1883273 α      in ANC's #5, #13, #1, ...

........................................................................
.............................. CYCLE   23 ..............................
........................................................................
   1    -53.1139774 -0.531140E+02  0.128E-01    1.79       0.0  T
   2    -53.1139841 -0.662378E-05  0.760E-02    1.79       1.0  T
   3    -53.1139304  0.536731E-04  0.471E-02    1.79       1.0  T
   4    -53.1139950 -0.645665E-04  0.108E-02    1.79       1.7  T
   5    -53.1139957 -0.780210E-06  0.439E-03    1.79       4.2  T
   6    -53.1139958 -0.384896E-07  0.250E-03    1.79       7.3  T
   7    -53.1139959 -0.770753E-07  0.143E-03    1.79      12.8  T
   8    -53.1139959 -0.100616E-08  0.601E-04    1.79      30.4  T
   9    -53.1139959 -0.773572E-08  0.160E-04    1.79     113.8  T
     SCC iter.                  ...        0 min,  0.012 sec
     gradient                   ...        0 min,  0.004 sec
 * total energy  :   -52.3121832 Eh     change       -0.8317355E-03 Eh
   gradient norm :     0.0067902 Eh/α   predicted    -0.7457766E-03 ( -10.33%)
   displ. norm   :     0.1776247 α      lambda       -0.2871918E-03
   maximum displ.:     0.1506227 α      in ANC's #5, #13, #1, ...

........................................................................
.............................. CYCLE   24 ..............................
........................................................................
   1    -53.1151621 -0.531152E+02  0.476E-02    1.79       0.0  T
   2    -53.1151635 -0.147167E-05  0.267E-02    1.79       1.0  T
   3    -53.1151623  0.124924E-05  0.851E-03    1.79       2.1  T
   4    -53.1151636 -0.127389E-05  0.414E-03    1.79       4.4  T
   5    -53.1151639 -0.312769E-06  0.146E-03    1.79      12.5  T
   6    -53.1151639 -0.193828E-07  0.793E-04    1.79      23.0  T
   7    -53.1151639 -0.102916E-07  0.346E-04    1.79      52.7  T
     SCC iter.                  ...        0 min,  0.010 sec
     gradient                   ...        0 min,  0.003 sec
 * total energy  :   -52.3124060 Eh     change       -0.2228021E-03 Eh
   gradient norm :     0.0057100 Eh/α   predicted    -0.1481312E-03 ( -33.51%)
   displ. norm   :     0.1788166 α      lambda       -0.2320080E-03
   maximum displ.:     0.1512553 α      in ANC's #5, #1, #8, ...

........................................................................
.............................. CYCLE   25 ..............................
........................................................................
   1    -53.1156944 -0.531157E+02  0.513E-02    1.79       0.0  T
   2    -53.1156953 -0.858183E-06  0.293E-02    1.79       1.0  T
   3    -53.1156911  0.418079E-05  0.130E-02    1.79       1.4  T
   4    -53.1156958 -0.470001E-05  0.330E-03    1.79       5.5  T
   5    -53.1156959 -0.103781E-06  0.141E-03    1.79      12.9  T
   6    -53.1156959 -0.233815E-07  0.502E-04    1.79      36.4  T
   7    -53.1156959 -0.561396E-08  0.182E-04    1.79     100.3  T
     SCC iter.                  ...        0 min,  0.010 sec
     gradient                   ...        0 min,  0.003 sec
 * total energy  :   -52.3125880 Eh     change       -0.1819748E-03 Eh
   gradient norm :     0.0037009 Eh/α   predicted    -0.1197144E-03 ( -34.21%)
   displ. norm   :     0.1631350 α      lambda       -0.1412661E-03
   maximum displ.:     0.1289423 α      in ANC's #5, #1, #8, ...

........................................................................
.............................. CYCLE   26 ..............................
........................................................................
   1    -53.1154973 -0.531155E+02  0.480E-02    1.80       0.0  T
   2    -53.1154976 -0.325967E-06  0.275E-02    1.80       1.0  T
   3    -53.1154926  0.501158E-05  0.142E-02    1.80       1.3  T
   4    -53.1154983 -0.568680E-05  0.282E-03    1.80       6.5  T
   5    -53.1154983 -0.105995E-07  0.770E-04    1.80      23.7  T
   6    -53.1154983 -0.800049E-08  0.397E-04    1.80      46.0  T
     SCC iter.                  ...        0 min,  0.009 sec
     gradient                   ...        0 min,  0.003 sec
 * total energy  :   -52.3126972 Eh     change       -0.1091763E-03 Eh
   gradient norm :     0.0032188 Eh/α   predicted    -0.7252047E-04 ( -33.57%)
   displ. norm   :     0.1515574 α      lambda       -0.8341465E-04
   maximum displ.:     0.1102696 α      in ANC's #5, #1, #8, ...

........................................................................
.............................. CYCLE   27 ..............................
........................................................................
   1    -53.1150500 -0.531150E+02  0.444E-02    1.80       0.0  T
   2    -53.1150503 -0.303665E-06  0.252E-02    1.80       1.0  T
   3    -53.1150477  0.251704E-05  0.104E-02    1.80       1.7  T
   4    -53.1150506 -0.284977E-05  0.270E-03    1.80       6.8  T
   5    -53.1150506 -0.209677E-07  0.929E-04    1.80      19.6  T
   6    -53.1150506 -0.212245E-07  0.299E-04    1.80      61.1  T
     SCC iter.                  ...        0 min,  0.009 sec
     gradient                   ...        0 min,  0.004 sec
 * total energy  :   -52.3127603 Eh     change       -0.6315193E-04 Eh
   gradient norm :     0.0027940 Eh/α   predicted    -0.4266589E-04 ( -32.44%)
   displ. norm   :     0.1401856 α      lambda       -0.4808610E-04
   maximum displ.:     0.0940651 α      in ANC's #5, #1, #8, ...

........................................................................
.............................. CYCLE   28 ..............................
........................................................................
   1    -53.1146807 -0.531147E+02  0.412E-02    1.80       0.0  T
   2    -53.1146811 -0.370067E-06  0.231E-02    1.80       1.0  T
   3    -53.1146801  0.982384E-06  0.709E-03    1.80       2.6  T
   4    -53.1146812 -0.110293E-05  0.273E-03    1.80       6.7  T
   5    -53.1146813 -0.624375E-07  0.968E-04    1.80      18.9  T
   6    -53.1146813 -0.184606E-07  0.295E-04    1.80      61.9  T
     SCC iter.                  ...        0 min,  0.009 sec
     gradient                   ...        0 min,  0.003 sec
 * total energy  :   -52.3127928 Eh     change       -0.3249447E-04 Eh
   gradient norm :     0.0016793 Eh/α   predicted    -0.2452351E-04 ( -24.53%)
   displ. norm   :     0.0927945 α      lambda       -0.1316018E-04
   maximum displ.:     0.0712756 α      in ANC's #1, #5, #8, ...

........................................................................
.............................. CYCLE   29 ..............................
........................................................................
   1    -53.1148319 -0.531148E+02  0.281E-02    1.80       0.0  T
   2    -53.1148322 -0.254746E-06  0.156E-02    1.80       1.2  T
   3    -53.1148320  0.222205E-06  0.374E-03    1.80       4.9  T
   4    -53.1148322 -0.210155E-06  0.205E-03    1.80       8.9  T
   5    -53.1148322 -0.746342E-07  0.680E-04    1.80      26.8  T
   6    -53.1148322 -0.581453E-08  0.245E-04    1.80      74.5  T
     SCC iter.                  ...        0 min,  0.009 sec
     gradient                   ...        0 min,  0.004 sec
 * total energy  :   -52.3128056 Eh     change       -0.1277432E-04 Eh
   gradient norm :     0.0006213 Eh/α   predicted    -0.6614239E-05 ( -48.22%)
   displ. norm   :     0.0349442 α      lambda       -0.6301383E-05
   maximum displ.:     0.0286655 α      in ANC's #1, #5, #4, ...

........................................................................
.............................. CYCLE   30 ..............................
........................................................................
   1    -53.1151142 -0.531151E+02  0.988E-03    1.80       0.0  T
   2    -53.1151142 -0.339813E-07  0.551E-03    1.80       3.3  T
   3    -53.1151141  0.920249E-07  0.204E-03    1.80       9.0  T
   4    -53.1151142 -0.994324E-07  0.754E-04    1.80      24.2  T
   5    -53.1151142 -0.812312E-08  0.227E-04    1.80      80.3  T
     SCC iter.                  ...        0 min,  0.007 sec
     gradient                   ...        0 min,  0.004 sec
 * total energy  :   -52.3128139 Eh     change       -0.8336116E-05 Eh
   gradient norm :     0.0008147 Eh/α   predicted    -0.3154643E-05 ( -62.16%)
   displ. norm   :     0.0555377 α      lambda       -0.8623304E-05
   maximum displ.:     0.0389207 α      in ANC's #1, #5, #4, ...

........................................................................
.............................. CYCLE   31 ..............................
........................................................................
   1    -53.1150597 -0.531151E+02  0.146E-02    1.80       0.0  T
   2    -53.1150597 -0.343947E-07  0.817E-03    1.80       2.2  T
   3    -53.1150596  0.120329E-06  0.244E-03    1.80       7.5  T
   4    -53.1150598 -0.136436E-06  0.898E-04    1.80      20.3  T
   5    -53.1150598 -0.488216E-08  0.286E-04    1.80      63.8  T
     SCC iter.                  ...        0 min,  0.007 sec
     gradient                   ...        0 min,  0.004 sec
 * total energy  :   -52.3128250 Eh     change       -0.1101014E-04 Eh
   gradient norm :     0.0008656 Eh/α   predicted    -0.4320854E-05 ( -60.76%)
   displ. norm   :     0.0646184 α      lambda       -0.8055824E-05
   maximum displ.:     0.0483989 α      in ANC's #1, #5, #4, ...

........................................................................
.............................. CYCLE   32 ..............................
........................................................................
   1    -53.1151678 -0.531152E+02  0.159E-02    1.80       0.0  T
   2    -53.1151678 -0.376479E-07  0.894E-03    1.80       2.0  T
   3    -53.1151678  0.581308E-07  0.190E-03    1.80       9.6  T
   4    -53.1151678 -0.657025E-07  0.924E-04    1.80      19.8  T
   5    -53.1151679 -0.738599E-08  0.312E-04    1.80      58.6  T
     SCC iter.                  ...        0 min,  0.008 sec
     gradient                   ...        0 min,  0.003 sec
 * total energy  :   -52.3128351 Eh     change       -0.1017511E-04 Eh
   gradient norm :     0.0007193 Eh/α   predicted    -0.4036819E-05 ( -60.33%)
   displ. norm   :     0.0504583 α      lambda       -0.5596803E-05
   maximum displ.:     0.0434092 α      in ANC's #1, #5, #4, ...

........................................................................
.............................. CYCLE   33 ..............................
........................................................................
   1    -53.1151093 -0.531151E+02  0.124E-02    1.80       0.0  T
   2    -53.1151093 -0.327530E-07  0.687E-03    1.80       2.7  T
   3    -53.1151093  0.192383E-07  0.135E-03    1.80      13.6  T
   4    -53.1151093 -0.174161E-07  0.812E-04    1.80      22.5  T
   5    -53.1151093 -0.102646E-07  0.207E-04    1.80      88.1  T
     SCC iter.                  ...        0 min,  0.009 sec
     gradient                   ...        0 min,  0.004 sec
 * total energy  :   -52.3128427 Eh     change       -0.7559410E-05 Eh
   gradient norm :     0.0004723 Eh/α   predicted    -0.2803031E-05 ( -62.92%)
   displ. norm   :     0.0362759 α      lambda       -0.4322971E-05
   maximum displ.:     0.0345338 α      in ANC's #1, #4, #5, ...

........................................................................
.............................. CYCLE   34 ..............................
........................................................................
   1    -53.1151317 -0.531151E+02  0.912E-03    1.80       0.0  T
   2    -53.1151317 -0.163644E-07  0.508E-03    1.80       3.6  T
   3    -53.1151317  0.243197E-08  0.793E-04    1.80      23.0  T
   4    -53.1151317 -0.389463E-09  0.520E-04    1.80      35.1  T
     SCC iter.                  ...        0 min,  0.006 sec
     gradient                   ...        0 min,  0.004 sec
 * total energy  :   -52.3128488 Eh     change       -0.6111880E-05 Eh
   gradient norm :     0.0003126 Eh/α   predicted    -0.2166871E-05 ( -64.55%)
   displ. norm   :     0.0326919 α      lambda       -0.4096120E-05
   maximum displ.:     0.0310829 α      in ANC's #1, #6, #5, ...

........................................................................
.............................. CYCLE   35 ..............................
........................................................................
   1    -53.1151540 -0.531152E+02  0.834E-03    1.80       0.0  T
   2    -53.1151540 -0.143145E-07  0.460E-03    1.80       4.0  T
   3    -53.1151540  0.116580E-07  0.973E-04    1.80      18.8  T
   4    -53.1151540 -0.109093E-07  0.546E-04    1.80      33.5  T
     SCC iter.                  ...        0 min,  0.006 sec
     gradient                   ...        0 min,  0.004 sec
 * total energy  :   -52.3128546 Eh     change       -0.5822280E-05 Eh
   gradient norm :     0.0003418 Eh/α   predicted    -0.2051766E-05 ( -64.76%)
   displ. norm   :     0.0350444 α      lambda       -0.4125542E-05
   maximum displ.:     0.0320662 α      in ANC's #1, #6, #5, ...

........................................................................
.............................. CYCLE   36 ..............................
........................................................................
   1    -53.1150983 -0.531151E+02  0.870E-03    1.80       0.0  T
   2    -53.1150983 -0.104160E-07  0.488E-03    1.80       3.7  T
   3    -53.1150983  0.155226E-07  0.101E-03    1.80      18.0  T
   4    -53.1150983 -0.169225E-07  0.505E-04    1.80      36.2  T
   5    -53.1150983 -0.290236E-08  0.115E-04    1.80     158.9  T
     SCC iter.                  ...        0 min,  0.007 sec
     gradient                   ...        0 min,  0.004 sec
 * total energy  :   -52.3128605 Eh     change       -0.5906834E-05 Eh
   gradient norm :     0.0004040 Eh/α   predicted    -0.2066138E-05 ( -65.02%)
   displ. norm   :     0.0356334 α      lambda       -0.3977112E-05
   maximum displ.:     0.0326145 α      in ANC's #1, #5, #6, ...

........................................................................
.............................. CYCLE   37 ..............................
........................................................................
   1    -53.1151397 -0.531151E+02  0.850E-03    1.80       0.0  T
   2    -53.1151397 -0.109737E-07  0.472E-03    1.80       3.9  T
   3    -53.1151397  0.705388E-08  0.853E-04    1.80      21.4  T
   4    -53.1151397 -0.696372E-08  0.507E-04    1.80      36.0  T
     SCC iter.                  ...        0 min,  0.006 sec
     gradient                   ...        0 min,  0.003 sec
 * total energy  :   -52.3128662 Eh     change       -0.5644348E-05 Eh
   gradient norm :     0.0003803 Eh/α   predicted    -0.1989960E-05 ( -64.74%)
   displ. norm   :     0.0342572 α      lambda       -0.3653794E-05
   maximum displ.:     0.0319662 α      in ANC's #1, #5, #6, ...

........................................................................
.............................. CYCLE   38 ..............................
........................................................................
   1    -53.1151246 -0.531151E+02  0.815E-03    1.80       0.0  T
   2    -53.1151246 -0.102857E-07  0.453E-03    1.80       4.0  T
   3    -53.1151246  0.807260E-08  0.874E-04    1.80      20.9  T
   4    -53.1151246 -0.799465E-08  0.504E-04    1.80      36.2  T
     SCC iter.                  ...        0 min,  0.006 sec
     gradient                   ...        0 min,  0.003 sec
 * total energy  :   -52.3128714 Eh     change       -0.5200671E-05 Eh
   gradient norm :     0.0003042 Eh/α   predicted    -0.1828994E-05 ( -64.83%)
   displ. norm   :     0.0317404 α      lambda       -0.3293992E-05
   maximum displ.:     0.0301341 α      in ANC's #1, #8, #6, ...

........................................................................
.............................. CYCLE   39 ..............................
........................................................................
   1    -53.1151072 -0.531151E+02  0.769E-03    1.80       0.0  T
   2    -53.1151072 -0.950952E-08  0.432E-03    1.80       4.2  T
   3    -53.1151072  0.137260E-08  0.606E-04    1.80      30.1  T
   4    -53.1151072 -0.169109E-11  0.399E-04    1.80      45.7  T
     SCC iter.                  ...        0 min,  0.006 sec
     gradient                   ...        0 min,  0.004 sec
 * total energy  :   -52.3128761 Eh     change       -0.4716393E-05 Eh
   gradient norm :     0.0002121 Eh/α   predicted    -0.1650679E-05 ( -65.00%)
   displ. norm   :     0.0295599 α      lambda       -0.2976420E-05
   maximum displ.:     0.0280902 α      in ANC's #1, #8, #3, ...

   *** GEOMETRY OPTIMIZATION CONVERGED AFTER 39 ITERATIONS ***

------------------------------------------------------------------------
 total energy gain   :        -6.5300584 Eh    -4097.6735 kcal/mol
 total RMSD          :         1.5873332 a0        0.8400 Å
 total power (kW/mol):      -439.6068218 (step)********** (real)
------------------------------------------------------------------------

 ANCopt (total)                0 d,  0 h,  0 min,  0.661 sec
 optimizer setup                ...        0 min,  0.000 sec (  0.014%)
 model hessian                  ...        0 min,  0.005 sec (  0.831%)
 ANC generation                 ...        0 min,  0.001 sec (  0.168%)
 coordinate transformation      ...        0 min,  0.000 sec (  0.039%)
 single point calculation       ...        0 min,  0.646 sec ( 97.781%)
 optimization log               ...        0 min,  0.004 sec (  0.552%)
 hessian update                 ...        0 min,  0.001 sec (  0.090%)
 rational function              ...        0 min,  0.002 sec (  0.357%)

================
 final structure:
================
30
 xtb: 6.5.0 (746241f)
C            4.42748348136763       12.44128187525048       -1.09970031729131
C            4.85529584487559       12.64416349468409        0.17411707337686
S            4.66419979622176       11.24667114975889        1.15587575236773
C            3.98754296648170       10.35817737781407       -0.18176400823932
C            3.56449210734826        9.00715361553687       -0.02156740806904
C            3.60253750984413        8.23087475461424        1.11214945494645
C            3.08272041659553        6.94718671455176        0.92555182496724
C            2.63985696862661        6.71698699643742       -0.35600893461639
C            2.03762913807001        5.54251270832810       -0.88441253036306
C            1.63714246194965        5.29619092126967       -2.17690470125220
C            1.05290912734121        4.03834921479270       -2.34796209031669
C            0.99260921495986        3.30055259240812       -1.18974202495027
C            0.44457353524145        1.99928597931167       -0.99934789902966
C            0.35650799743517        1.27222381110944        0.16069894700256
C           -0.26451907371197        0.02273832159871       -0.01648573377620
C           -0.64503781593862       -0.19762664939089       -1.30233594118547
S           -0.25219149670233        1.12027030570065       -2.33293295842313
S            1.68547562556488        4.18045126328598        0.14423129863790
S            2.87681720123690        8.12432241445428       -1.35625579662979
C            3.93266896299122       11.14111973415750       -1.30696140715975
H            4.46275298045705       13.19521465360545       -1.86554571299826
H            5.27361980956037       13.53184681956645        0.60481896692045
H            3.99433098122612        8.59319926652465        2.04616576198031
H            3.02595579394435        6.20047065985637        1.69776232818174
H            1.76727455620746        6.01419459017436       -2.96728892739434
H            0.67780929677504        3.66993779762449       -3.28645242232654
H            0.72735502592285        1.63546939669168        1.10266892708013
H           -0.42345267951810       -0.68263172430067        0.77938444786536
H           -1.13587746900535       -1.05584829712702       -1.71589841451370
H            3.54591773463194       10.78316024170956       -2.24455755479158
 
 Bond Distances (Angstroems)
 ---------------------------
C1-C2=1.3590         C1-C20=1.4065        C1-H21=1.0753        C2-C1=1.3590         C2-S3=1.7185         C2-H22=1.0717        
S3-C2=1.7185         S3-C4=1.7426         C4-S3=1.7426         C4-C5=1.4247         C4-C20=1.3719        C5-C4=1.4247         
C5-C6=1.3745         C5-S19=1.7417        C6-C5=1.3745         C6-C7=1.3975         C6-H23=1.0757        C7-C6=1.3975         
C7-C8=1.3753         C7-H24=1.0757        C8-C7=1.3753         C8-C9=1.4217         C8-S19=1.7428        C9-C8=1.4217         
C9-C10=1.3754        C9-S18=1.7428        C10-C9=1.3754        C10-C11=1.3974       C10-H25=1.0757       C11-C10=1.3974       
C11-C12=1.3746       C11-H26=1.0757       C12-C11=1.3746       C12-C13=1.4247       C12-S18=1.7418       C13-C12=1.4247       
C13-C14=1.3719       C13-S17=1.7426       C14-C13=1.3719       C14-C15=1.4065       C14-H27=1.0755       C15-C14=1.4065       
C15-C16=1.3590       C15-H28=1.0753       C16-C15=1.3590       C16-S17=1.7185       C16-H29=1.0717       S17-C13=1.7426       
S17-C16=1.7185       S18-C9=1.7428        S18-C12=1.7418       S19-C5=1.7417        S19-C8=1.7428        C20-C1=1.4065        
C20-C4=1.3719        C20-H30=1.0755       H21-C1=1.0753        H22-C2=1.0717        H23-C6=1.0757        H24-C7=1.0757        
H25-C10=1.0757       H26-C11=1.0757       H27-C14=1.0755       H28-C15=1.0753       H29-C16=1.0717       H30-C20=1.0755       
 C  H  Rav=1.0748 sigma=0.0016  Rmin=1.0717  Rmax=1.0757    10
 C  C  Rav=1.3894 sigma=0.0224  Rmin=1.3590  Rmax=1.4247    15
 S  C  Rav=1.7364 sigma=0.0103  Rmin=1.7185  Rmax=1.7428     8
 
 selected bond angles (degree)
 --------------------
C20-C1-C2=112.76               H21-C1-C2=123.55               H21-C1-C20=123.69              S3-C2-C1=112.28                
H22-C2-C1=128.55               H22-C2-S3=119.17               C4-S3-C2= 91.10                C5-C4-S3=120.83                
C20-C4-S3=110.74               C20-C4-C5=128.43               C6-C5-C4=128.32                S19-C5-C4=120.78               
S19-C5-C6=110.90               C7-C6-C5=113.48                H23-C6-C5=122.41               H23-C6-C7=124.11               
C8-C7-C6=113.45                H24-C7-C6=124.15               H24-C7-C8=122.39               C9-C8-C7=128.39                
S19-C8-C7=110.85               S19-C8-C9=120.76               C10-C9-C8=128.36               S18-C9-C8=120.79               
S18-C9-C10=110.85              C11-C10-C9=113.45              H25-C10-C9=122.39              H25-C10-C11=124.16             
 
 selected dihedral angles (degree)
 ---------------------------------
S3-C2-C1-C20=  0.00           S3-C2-C1-H21=179.94           H22-C2-C1-C20=180.07          H22-C2-C1-H21=  0.00          
C4-S3-C2-C1=359.97            C4-S3-C2-H22=179.92           C5-C4-S3-C2=180.65            C20-C4-S3-C2=  0.03           
C6-C5-C4-S3=  0.32            C6-C5-C4-C20=181.05           S19-C5-C4-S3=179.52           S19-C5-C4-C20=  0.25          
C7-C6-C5-C4=178.92            C7-C6-C5-S19=359.65           H23-C6-C5-C4=359.15           H23-C6-C5-S19=179.89          
C8-C7-C6-C5=  0.13            C8-C7-C6-H23=179.89           H24-C7-C6-C5=180.20           H24-C7-C6-H23=359.96          
C9-C8-C7-C6=181.24            C9-C8-C7-H24=  1.17           S19-C8-C7-C6=  0.15           S19-C8-C7-H24=180.08          
C10-C9-C8-C7=182.48           C10-C9-C8-S19=  3.66          S18-C9-C8-C7=  3.68           S18-C9-C8-S19=184.86          
C11-C10-C9-C8=181.25          C11-C10-C9-S18=  0.15         H25-C10-C9-C8=  1.16          H25-C10-C9-S18=180.06         
           -------------------------------------------------
          |                Final Singlepoint                |
           -------------------------------------------------

          ...................................................
          :                      SETUP                      :
          :.................................................:
          :  # basis functions                 114          :
          :  # atomic orbitals                 110          :
          :  # shells                           54          :
          :  # electrons                        98          :
          :  max. iterations                   250          :
          :  Hamiltonian                  GFN2-xTB          :
          :  restarted?                      false          :
          :  GBSA solvation                  false          :
          :  PC potential                    false          :
          :  electronic temp.          300.0000000     K    :
          :  accuracy                    1.0000000          :
          :  -> integral cutoff          0.2500000E+02      :
          :  -> integral neglect         0.1000000E-07      :
          :  -> SCF convergence          0.1000000E-05 Eh   :
          :  -> wf. convergence          0.1000000E-03 e    :
          :  Broyden damping             0.4000000          :
          ...................................................

 iter      E             dE          RMSdq      gap      omega  full diag
   1    -53.1151072 -0.531151E+02  0.104E-04    1.80       0.0  T
   2    -53.1151072  0.159162E-10  0.894E-05    1.80     204.1  T
   3    -53.1151072 -0.245990E-09  0.291E-05    1.80     627.8  T

   *** convergence criteria satisfied after 3 iterations ***

         #    Occupation            Energy/Eh            Energy/eV
      -------------------------------------------------------------
         1        2.0000           -0.7347461             -19.9935
       ...           ...                  ...                  ...
        43        2.0000           -0.4159464             -11.3185
        44        2.0000           -0.4031825             -10.9712
        45        2.0000           -0.4024195             -10.9504
        46        2.0000           -0.4006829             -10.9031
        47        2.0000           -0.4005891             -10.9006
        48        2.0000           -0.3839625             -10.4482
        49        2.0000           -0.3574243              -9.7260 (HOMO)
        50                         -0.2914017              -7.9294 (LUMO)
        51                         -0.2634561              -7.1690
        52                         -0.2339721              -6.3667
        53                         -0.2191120              -5.9623
        54                         -0.2142571              -5.8302
       ...                                ...                  ...
       110                          0.7049535              19.1828
      -------------------------------------------------------------
                  HL-Gap            0.0660226 Eh            1.7966 eV
             Fermi-level           -0.3244130 Eh           -8.8277 eV

 SCC (total)                   0 d,  0 h,  0 min,  0.010 sec
 SCC setup                      ...        0 min,  0.000 sec (  0.712%)
 Dispersion                     ...        0 min,  0.000 sec (  1.111%)
 classical contributions        ...        0 min,  0.000 sec (  0.110%)
 integral evaluation            ...        0 min,  0.002 sec ( 15.929%)
 iterations                     ...        0 min,  0.005 sec ( 46.372%)
 molecular gradient             ...        0 min,  0.003 sec ( 34.141%)
 printout                       ...        0 min,  0.000 sec (  1.354%)

         :::::::::::::::::::::::::::::::::::::::::::::::::::::
         ::                     SUMMARY                     ::
         :::::::::::::::::::::::::::::::::::::::::::::::::::::
         :: total energy             -52.312876099496 Eh    ::
         :: gradient norm              0.000211224576 Eh/a0 ::
         :: HOMO-LUMO gap              1.796567587813 eV    ::
         ::.................................................::
         :: SCC energy               -53.115107208530 Eh    ::
         :: -> isotropic ES            0.002411250902 Eh    ::
         :: -> anisotropic ES          0.000781700416 Eh    ::
         :: -> anisotropic XC          0.024604781505 Eh    ::
         :: -> dispersion             -0.040854183835 Eh    ::
         :: repulsion energy           0.802852879780 Eh    ::
         :: add. restraining           0.000000000000 Eh    ::
         :: total charge               0.000000000000 e     ::
         :::::::::::::::::::::::::::::::::::::::::::::::::::::

           -------------------------------------------------
          |                Property Printout                |
           -------------------------------------------------

    * Orbital Energies and Occupations

         #    Occupation            Energy/Eh            Energy/eV
      -------------------------------------------------------------
         1        2.0000           -0.7347461             -19.9935
       ...           ...                  ...                  ...
        37        2.0000           -0.4553685             -12.3912
        38        2.0000           -0.4550951             -12.3838
        39        2.0000           -0.4523358             -12.3087
        40        2.0000           -0.4484275             -12.2023
        41        2.0000           -0.4457029             -12.1282
        42        2.0000           -0.4411542             -12.0044
        43        2.0000           -0.4159464             -11.3185
        44        2.0000           -0.4031825             -10.9712
        45        2.0000           -0.4024195             -10.9504
        46        2.0000           -0.4006829             -10.9031
        47        2.0000           -0.4005891             -10.9006
        48        2.0000           -0.3839625             -10.4482
        49        2.0000           -0.3574243              -9.7260 (HOMO)
        50                         -0.2914017              -7.9294 (LUMO)
        51                         -0.2634561              -7.1690
        52                         -0.2339721              -6.3667
        53                         -0.2191120              -5.9623
        54                         -0.2142571              -5.8302
        55                         -0.2072027              -5.6383
        56                         -0.2057994              -5.6001
        57                         -0.1980878              -5.3902
        58                         -0.1835713              -4.9952
        59                         -0.1644329              -4.4744
        60                         -0.1515074              -4.1227
       ...                                ...                  ...
       110                          0.7049535              19.1828
      -------------------------------------------------------------
                  HL-Gap            0.0660226 Eh            1.7966 eV
             Fermi-level           -0.3244130 Eh           -8.8277 eV

     #   Z          covCN         q      C6AA      α(0)
     1   6 C        3.108    -0.041    28.876     8.804
     2   6 C        2.941    -0.019    28.487     8.754
     3  16 S        2.327    -0.030   142.300    20.077
     4   6 C        3.024     0.020    27.537     8.608
     5   6 C        3.022     0.022    27.494     8.601
     6   6 C        3.097    -0.048    29.064     8.835
     7   6 C        3.097    -0.048    29.065     8.836
     8   6 C        3.023     0.022    27.497     8.601
     9   6 C        3.023     0.022    27.497     8.601
    10   6 C        3.097    -0.048    29.065     8.836
    11   6 C        3.097    -0.048    29.064     8.835
    12   6 C        3.022     0.022    27.494     8.601
    13   6 C        3.024     0.020    27.537     8.608
    14   6 C        3.110    -0.050    29.096     8.837
    15   6 C        3.108    -0.041    28.876     8.804
    16   6 C        2.941    -0.019    28.487     8.754
    17  16 S        2.327    -0.030   142.300    20.077
    18  16 S        2.345    -0.044   142.879    20.118
    19  16 S        2.346    -0.044   142.881    20.118
    20   6 C        3.110    -0.050    29.096     8.837
    21   1 H        0.926     0.039     2.457     2.451
    22   1 H        0.926     0.046     2.373     2.409
    23   1 H        0.926     0.045     2.385     2.415
    24   1 H        0.926     0.044     2.390     2.418
    25   1 H        0.926     0.044     2.390     2.418
    26   1 H        0.926     0.045     2.384     2.415
    27   1 H        0.926     0.043     2.410     2.428
    28   1 H        0.926     0.039     2.457     2.451
    29   1 H        0.926     0.046     2.373     2.409
    30   1 H        0.926     0.043     2.410     2.428

 Mol. C6AA /au·bohr⁶  :      22031.012312
 Mol. C8AA /au·bohr⁸  :     716004.596221
 Mol. α(0) /au        :        244.383585


Wiberg/Mayer (AO) data.
largest (>0.10) Wiberg bond orders for each atom

 ---------------------------------------------------------------------------
     #   Z sym  total        # sym  WBO       # sym  WBO       # sym  WBO
 ---------------------------------------------------------------------------
     1   6 C    3.987 --     2 C    1.603    20 C    1.301    21 H    0.965
     2   6 C    3.924 --     1 C    1.603     3 S    1.193    22 H    0.970
     3  16 S    2.600 --     2 C    1.193     4 C    1.124
     4   6 C    3.952 --    20 C    1.504     5 C    1.164     3 S    1.124
     5   6 C    3.931 --     6 C    1.478     4 C    1.164    19 S    1.122
     6   6 C    3.985 --     5 C    1.478     7 C    1.343    23 H    0.961
     7   6 C    3.972 --     8 C    1.472     6 C    1.343    24 H    0.961
     8   6 C    3.939 --     7 C    1.472     9 C    1.175    19 S    1.118
     9   6 C    3.939 --    10 C    1.472     8 C    1.175    18 S    1.118
    10   6 C    3.972 --     9 C    1.472    11 C    1.343    25 H    0.961
    11   6 C    3.985 --    12 C    1.478    10 C    1.343    26 H    0.961
    12   6 C    3.931 --    11 C    1.478    13 C    1.164    18 S    1.122
    13   6 C    3.952 --    14 C    1.504    12 C    1.164    17 S    1.124
    14   6 C    3.970 --    13 C    1.504    15 C    1.301    27 H    0.962
    15   6 C    3.987 --    16 C    1.603    14 C    1.301    28 H    0.965
    16   6 C    3.924 --    15 C    1.603    17 S    1.193    29 H    0.970
    17  16 S    2.600 --    16 C    1.193    13 C    1.124
    18  16 S    2.563 --    12 C    1.122     9 C    1.118
    19  16 S    2.563 --     5 C    1.122     8 C    1.118
    20   6 C    3.970 --     4 C    1.504     1 C    1.301    30 H    0.962
    21   1 H    0.998 --     1 C    0.965
    22   1 H    0.997 --     2 C    0.970
    23   1 H    0.998 --     6 C    0.961
    24   1 H    0.998 --     7 C    0.961
    25   1 H    0.998 --    10 C    0.961
    26   1 H    0.998 --    11 C    0.961
    27   1 H    0.998 --    14 C    0.962
    28   1 H    0.998 --    15 C    0.965
    29   1 H    0.997 --    16 C    0.970
    30   1 H    0.998 --    20 C    0.962
 ---------------------------------------------------------------------------

Topologies differ in total number of bonds
Writing topology from bond orders to xtbtopo.mol

MOs/occ written to file <molden.input>


molecular dipole:
                 x           y           z       tot (Debye)
 q only:       -0.015       0.006       0.003
   full:       -0.028       0.011       0.007       0.078
molecular quadrupole (traceless):
                xx          xy          yy          xz          yz          zz
 q only:       -4.610       4.728       6.913       0.561      -1.345      -2.303
  q+dip:       -9.301       8.198      13.219      -0.133      -5.802      -3.918
   full:       -6.519       6.800      12.950      -1.414      -5.118      -6.431

           -------------------------------------------------
          |                Geometry Summary                 |
           -------------------------------------------------

      molecular mass/u    :      330.5103315
   center of mass at/Å    :        2.2349834       6.1712572      -0.5952341
  moments of inertia/u·Å² :        0.3849066E+03   0.6478056E+04   0.6856890E+04
rotational constants/cm⁻¹ :        0.4379668E-01   0.2602267E-02   0.2458495E-02

 * 33 selected distances

     #   Z          #   Z                                           value/Å
     1   6 C        2   6 C                                       1.3589685
     2   6 C        3  16 S                                       1.7185323
     3  16 S        4   6 C                                       1.7425746
     4   6 C        5   6 C                                       1.4247458
     5   6 C        6   6 C                                       1.3745438
     6   6 C        7   6 C                                       1.3974562
     7   6 C        8   6 C                                       1.3753248
     8   6 C        9   6 C                                       1.4217169
     9   6 C       10   6 C                                       1.3753546
    10   6 C       11   6 C                                       1.3974102
    11   6 C       12   6 C                                       1.3745741
    12   6 C       13   6 C                                       1.4247415
    13   6 C       14   6 C                                       1.3718907
    14   6 C       15   6 C                                       1.4065146
    15   6 C       16   6 C                                       1.3589578
    13   6 C       17  16 S                                       1.7425842
    16   6 C       17  16 S                                       1.7185201
     9   6 C       18  16 S                                       1.7427944 (max)
    12   6 C       18  16 S                                       1.7417724
     5   6 C       19  16 S                                       1.7417466
     8   6 C       19  16 S                                       1.7427672
     1   6 C       20   6 C                                       1.4064923
     4   6 C       20   6 C                                       1.3718890
     1   6 C       21   1 H                                       1.0752572
     2   6 C       22   1 H                                       1.0716720 (min)
     6   6 C       23   1 H                                       1.0757174
     7   6 C       24   1 H                                       1.0756934
    10   6 C       25   1 H                                       1.0757189
    11   6 C       26   1 H                                       1.0757282
    14   6 C       27   1 H                                       1.0755383
    15   6 C       28   1 H                                       1.0752750
    16   6 C       29   1 H                                       1.0716819
    20   6 C       30   1 H                                       1.0755456

 * 3 distinct bonds (by element types)

   Z      Z             #   av. dist./Å        max./Å        min./Å
   1 H    6 C          10     1.0747828     1.0757282     1.0716720
   6 C    6 C          15     1.3893721     1.4247458     1.3589578
   6 C   16 S           8     1.7364115     1.7427944     1.7185201


optimized geometry written to: xtbopt.xyz


           -------------------------------------------------
          | TOTAL ENERGY              -52.312876099496 Eh   |
          | GRADIENT NORM               0.000211224576 Eh/α |
          | HOMO-LUMO GAP               1.796567587813 eV   |
           -------------------------------------------------

------------------------------------------------------------------------
 * finished run on 2022/07/20 at 15:45:10.038     
------------------------------------------------------------------------
 total:
 * wall-time:     0 d,  0 h,  0 min,  0.760 sec
 *  cpu-time:     0 d,  0 h,  0 min, 12.076 sec
 * ratio c/w:    15.889 speedup
 SCF:
 * wall-time:     0 d,  0 h,  0 min,  0.052 sec
 *  cpu-time:     0 d,  0 h,  0 min,  0.804 sec
 * ratio c/w:    15.334 speedup
 ANC optimizer:
 * wall-time:     0 d,  0 h,  0 min,  0.671 sec
 *  cpu-time:     0 d,  0 h,  0 min, 10.732 sec
 * ratio c/w:    15.983 speedup

