30
 energy: -45.782817670849 gnorm: 7.312811794211 xtb: 6.5.0 (746241f)
C            3.92980000000000       11.62510000000000       -1.28100000000000
C            4.43810000000000       11.99660000000000       -0.09000000000000
S            4.37280000000000       10.51600000000000        0.78150000000000
C            3.89390000000000        9.94320000000000       -0.06600000000000
C            3.54300000000000        8.52510000000000        0.37260000000000
C            3.52890000000000        7.79040000000000        1.21140000000000
C            2.95280000000000        6.50920000000000        0.94280000000000
C            2.66910000000000        6.57840000000000       -0.12180000000000
C            2.03400000000000        5.67240000000000       -1.13360000000000
C            1.81320000000000        5.71510000000000       -2.21430000000000
C            1.22530000000000        4.43810000000000       -2.47790000000000
C            1.10390000000000        3.74680000000000       -1.61110000000000
C            0.59860000000000        2.39100000000000       -1.12830000000000
C            0.66930000000000        2.17580000000000       -0.02040000000000
C            0.03700000000000        0.91850000000000        0.22180000000000
C           -0.35950000000000        0.49970000000000       -0.99570000000000
S            0.19430000000000        1.78650000000000       -1.99240000000000
S            1.59310000000000        4.66260000000000       -1.20620000000000
S            3.10340000000000        7.59090000000000       -0.04680000000000
C            3.62760000000000       10.23830000000000       -1.12470000000000
H            3.78410000000000       12.23140000000000       -2.16910000000000
H            4.82710000000000       12.91600000000000        0.33040000000000
H            3.92070000000000        8.02850000000000        2.20930000000000
H            2.89160000000000        5.73560000000000        1.71020000000000
H            1.96170000000000        6.45200000000000       -3.00540000000000
H            0.90100000000000        4.17090000000000       -3.49220000000000
H            1.09170000000000        2.73560000000000        0.80970000000000
H           -0.08440000000000        0.41940000000000        1.17760000000000
H           -0.87060000000000       -0.37330000000000       -1.38310000000000
H            3.20290000000000        9.68210000000000       -1.95600000000000
30
 energy: -49.319994148052 gnorm: 2.956050198001 xtb: 6.5.0 (746241f)
C            3.92975905529909       11.62577758125042       -1.28219852059113
C            4.44063242228404       12.00189121080980       -0.08784482632700
S            4.42580449842632       10.58069966792970        0.87575250375046
C            3.86007571836281        9.88899268412928       -0.11428706158382
C            3.59223228931788        8.64746259899507        0.39483745576335
C            3.54466516628490        7.78634569788097        1.27153288512107
C            2.95397789765312        6.48054197381541        0.98701640404535
C            2.61092773422645        6.46225157546656       -0.15995131202128
C            2.09190532353581        5.78874911091982       -1.09546538451153
C            1.81485519337067        5.74254034362347       -2.25925680456656
C            1.21328866823394        4.44056559079323       -2.53892016930335
C            1.04730594971436        3.62725847812644       -1.63136491077860
C            0.63129465455294        2.44585899943024       -1.07989921824930
C            0.67447693507022        2.17365089311533        0.02067965933651
C            0.03699613433919        0.91787687914213        0.22300663279348
C           -0.36216677580456        0.49444584636356       -0.99781844801985
S            0.14862274438869        1.71859927690042       -2.08826809630987
S            1.60198748576866        4.63081523281475       -1.11005604151782
S            3.09618968361078        7.62225912355552       -0.14338972547325
C            3.61552944275256       10.24324190336467       -1.16401625154445
H            3.78421587960452       12.23112983351158       -2.16839635148038
H            4.82678668804226       12.91644678760107        0.32918031803708
H            3.92168113730132        8.02583015361019        2.21626726298425
H            2.89302637001570        5.73436957365591        1.71618447340285
H            1.96074421060850        6.45300482298957       -3.01157338735299
H            0.90063042603079        4.17332479500819       -3.49937854882352
H            1.09240883635942        2.73615275143244        0.81309401187709
H           -0.08444679952377        0.41964247333075        1.17688089207749
H           -0.87061626061535       -0.37360923079095       -1.38179948208381
H            3.20160929078873        9.68178337122445       -1.95924795865045
30
 energy: -50.422240239532 gnorm: 1.722042436260 xtb: 6.5.0 (746241f)
C            3.93171530805650       11.63557720905007       -1.28777896633054
C            4.44335057426413       12.00869031902033       -0.08881080468222
S            4.45354505660628       10.61935786117758        0.92493589532936
C            3.86456421677656        9.87171791225269       -0.08862918730651
C            3.62558242157189        8.71151729132896        0.42824716227948
C            3.55603804125242        7.77792887046032        1.32164153707087
C            2.96382827119233        6.47357172335680        1.03570107542933
C            2.58986402667566        6.41155855367209       -0.15633632846859
C            2.11234692911096        5.83980795010244       -1.09889425449259
C            1.80602317401050        5.74920214796612       -2.30807874631010
C            1.20545122479569        4.44744069205267       -2.59003532942763
C            1.01374527686065        3.56309800664262       -1.66493590905140
C            0.63463340187078        2.46000038343189       -1.10744902322720
C            0.67446306893847        2.15154106159460        0.08943896410066
C            0.03413795464795        0.90846241927752        0.22880363316049
C           -0.36442570373001        0.48744058156705       -0.99696366573465
S            0.12176091144794        1.67956110509519       -2.13739884638876
S            1.61027801841979        4.59743650801325       -1.01294091189230
S            3.09022294468639        7.65488056776778       -0.24091991355594
C            3.60138423933321       10.27107912002569       -1.22912190338310
H            3.78489943897208       12.23302771450157       -2.16758265846833
H            4.82625950869381       12.91803144983939        0.32582332093908
H            3.92608443968809        8.01947490306309        2.24069047430154
H            2.89668518967164        5.72723398128326        1.73633223015066
H            1.95891751986716        6.45925654272266       -3.03245600165378
H            0.89796345056304        4.17903784047677       -3.52440681511383
H            1.09517695913366        2.73833555271582        0.82709668664764
H           -0.08557787031648        0.41792967454390        1.17619137046412
H           -0.87069775215112       -0.37494794332156       -1.37828515059350
H            3.19617975909001        9.68065000031943       -1.97257793379228
30
 energy: -51.190253433984 gnorm: 1.034095485614 xtb: 6.5.0 (746241f)
C            3.93418516884519       11.64481827618779       -1.29063541529121
C            4.44956040505714       12.02758121654029       -0.08935259335529
S            4.49612345891889       10.69959515650036        0.97563772557575
C            3.86786913834374        9.87263218504262       -0.09161771903945
C            3.65299589934312        8.74655110104466        0.47408915228950
C            3.56702581493321        7.76468065870832        1.37742237583525
C            2.98186203117250        6.47517902133537        1.10490568978543
C            2.58303181557933        6.37096593019140       -0.11251512153285
C            2.11860077701018        5.88082458190053       -1.14262797605411
C            1.78849606960387        5.74753602291719       -2.37721279735038
C            1.19812037714885        4.45906644502022       -2.64683308337943
C            0.99010385271289        3.52635235913745       -1.71203666540946
C            0.63671673854723        2.45708699179165       -1.10574859992033
C            0.66935998701421        2.12736827558798        0.13415043425831
C            0.03113001171225        0.89944076149983        0.23180987753870
C           -0.37236955603772        0.46920153750067       -0.99591832308537
S            0.07660275122033        1.60025822602218       -2.18716260603655
S            1.61753084069837        4.54734816359167       -0.88963616060903
S            3.08496454388717        7.70432599449735       -0.36460281425455
C            3.59530464172159       10.29979638555415       -1.27091768233720
H            3.78568343007119       12.23627823318551       -2.16687853956613
H            4.82692709059161       12.92565799048196        0.32166297491170
H            3.93627147023513        8.01607687491027        2.28149232434547
H            2.90038268450153        5.71142854452192        1.76806981560798
H            1.95841727795954        6.47354331938715       -3.06531980317310
H            0.88985189443520        4.18164725638376       -3.56592199946724
H            1.10061218808959        2.74644137646449        0.83858334921190
H           -0.08720303432436        0.41500514285371        1.17574668795619
H           -0.87342013513522       -0.38177775874904       -1.37355587826557
H            3.18966236614344        9.67298972998858       -1.98377662918893
30
 energy: -51.660275593100 gnorm: 0.611784642029 xtb: 6.5.0 (746241f)
C            3.93841722442407       11.66205591010566       -1.29586364750378
C            4.45645694119207       12.05081698171781       -0.09215979686527
S            4.53925545188504       10.78355978332037        1.02407333410868
C            3.87627674387079        9.88408498614657       -0.09429157551493
C            3.67003048146830        8.75023500297212        0.51813620753852
C            3.57270517697054        7.74151797593734        1.42747449700810
C            2.99739415340112        6.47343268405322        1.16739358898375
C            2.58073933526238        6.33900534678424       -0.06862181360962
C            2.12161335832466        5.91266784205057       -1.18680699190052
C            1.77428619237597        5.74872968312761       -2.44001237174646
C            1.19615602715219        4.48054594856139       -2.69786021532048
C            0.98050217846729        3.51951987101564       -1.75811189553217
C            0.63492812559285        2.44319208199752       -1.10479418331176
C            0.66280472687303        2.10181980589226        0.17097409352815
C            0.02511765737566        0.88292091735525        0.23754741225161
C           -0.38163146705534        0.44683013328357       -0.99236087163828
S            0.02995955331956        1.51752444273811       -2.23452790319355
S            1.63315115661975        4.50504918257944       -0.74745648444978
S            3.07162645444742        7.74602614375722       -0.50739459524822
C            3.59240468821457       10.32919812742145       -1.30530825349035
H            3.78748216064583       12.24741221565261       -2.16902897000692
H            4.82911450435970       12.94336078597648        0.31448232965924
H            3.94975065267791        8.01140249679600        2.33741418637085
H            2.90149912031409        5.68498519837526        1.80770621788117
H            1.96038244955191        6.49864702306212       -3.10595497691351
H            0.87880050803578        4.18540152329240       -3.62256020075274
H            1.10562259573800        2.75171003959098        0.85662717901382
H           -0.09195517279714        0.40504935975116        1.17873163768481
H           -0.88039241573147       -0.39762891811851       -1.36506733252149
H            3.18190143702346        9.66882742480414       -2.00107860450885
30
 energy: -51.892973461471 gnorm: 0.387182626321 xtb: 6.5.0 (746241f)
C            3.94621095239542       11.68815802189159       -1.30052587466165
C            4.46588421625647       12.08475732254142       -0.09865417800317
S            4.58048237146058       10.86386858535227        1.07191502236844
C            3.89161372265001        9.90136972729017       -0.08176370783781
C            3.68274113750771        8.74351393214644        0.55058680906229
C            3.58022280811812        7.72880910236551        1.47017108943008
C            3.01232534735123        6.47765005909550        1.21431531352888
C            2.58756433156975        6.33021171260590       -0.03824842998406
C            2.11926511823972        5.92003116339546       -1.21852448918878
C            1.76209306527467        5.74335671549544       -2.48776405178253
C            1.19156244583605        4.49205569455305       -2.74123693038236
C            0.97800973915234        3.52226439343483       -1.79318946673187
C            0.62741867523800        2.42281254794432       -1.11942959483282
C            0.65463620920101        2.07991167036558        0.18472440780471
C            0.01539924835905        0.85755540792317        0.24279404348618
C           -0.39462215064563        0.41416302897935       -0.98476658738189
S           -0.01553320451350        1.43860787814128       -2.28119497807648
S            1.64608264408603        4.46277538798964       -0.62243074383538
S            3.06363035273229        7.78687410721774       -0.63375875659180
C            3.59549472004580       10.35306145369036       -1.31778152632767
H            3.79128540229226       12.27058007241483       -2.17451958342508
H            4.83399825151224       12.98383215347009        0.29737543528519
H            3.96426082741490        8.00669170496832        2.39922473863707
H            2.90405848311151        5.66150181070357        1.85408568826600
H            1.95945998963707        6.52149738892879       -3.15291733363437
H            0.86623174729668        4.18923204778500       -3.68487665431720
H            1.10534309916760        2.74758290533452        0.87326090088928
H           -0.10170237412849        0.38424617392425        1.18585669303530
H           -0.89613913752988       -0.43390825956505       -1.34506625093712
H            3.17712196091099        9.67483608961666       -2.01636100386135
30
 energy: -52.012938467328 gnorm: 0.290540616341 xtb: 6.5.0 (746241f)
C            3.95961543112806       11.72525351249205       -1.30115306970520
C            4.48123273303570       12.13726440315264       -0.10630415056529
S            4.62163876419704       10.94879877124978        1.11854679368107
C            3.91638572182846        9.93255541449293       -0.05193442336394
C            3.69611244818819        8.73761279285460        0.57009007898647
C            3.59206830892458        7.73117591725442        1.50391782424792
C            3.02712210001085        6.48719485103695        1.24218596533455
C            2.60435458365743        6.34357200289822       -0.02695903655970
C            2.11457324522061        5.90237241419986       -1.23331451274889
C            1.75384292872963        5.73110941190035       -2.51766422502101
C            1.18313871471691        4.48842099456044       -2.77576853456919
C            0.97832506478141        3.52305738425509       -1.81617895414937
C            0.60955197411343        2.38878896614328       -1.15121600436317
C            0.63985879766426        2.05191018787481        0.17318920663358
C            0.00054182358405        0.82093883950454        0.24391127068048
C           -0.41530254445192        0.36358296776882       -0.97557412684394
S           -0.06392579146333        1.35621782331172       -2.32601488318712
S            1.65437056353373        4.41852948823412       -0.52606208560753
S            3.06653749898978        7.82742544063721       -0.73309330467191
C            3.60866356198387       10.38150172278301       -1.30588892529819
H            3.79901444235607       12.30717829006999       -2.17950078478633
H            4.84194792642460       13.05544174715352        0.26416575756828
H            3.97622951124974        8.00060685014721        2.45834599278919
H            2.90899946674718        5.65619059954933        1.89614454753500
H            1.95208409947800        6.52807794687596       -3.19418598731393
H            0.85442422061549        4.19496004336206       -3.74388458184580
H            1.09174945011163        2.71984178362406        0.88135628518678
H           -0.11764065868165        0.35085907553779        1.19310424289875
H           -0.92320359917531       -0.49815362133008       -1.30681731093287
H            3.18208921250153        9.70561397840528       -2.02214306400864
30
 energy: -52.090741682512 gnorm: 0.244734949882 xtb: 6.5.0 (746241f)
C            3.97837254078807       11.77100073853836       -1.29464274152094
C            4.50230670362478       12.20268833723805       -0.10960526414290
S            4.66031459322434       11.03675632680822        1.16163400755235
C            3.94646538785966        9.97484730363667       -0.01168805534795
C            3.71127187700853        8.73872452308956        0.57384417818866
C            3.60804322808133        7.74975647748761        1.52636954545567
C            3.04284075374853        6.50434941124668        1.25150372328430
C            2.63000722247936        6.37596548806316       -0.03470715931086
C            2.10905616153193        5.86266664546290       -1.23126539994923
C            1.74868174066548        5.70973265490930       -2.53016885729422
C            1.17099467407373        4.46855684593850       -2.79908956674938
C            0.97942081584445        3.51607162645614       -1.82404333966348
C            0.58314877903834        2.34485503031774       -1.19266320367455
C            0.61742331771337        2.01498740220858        0.14352523809724
C           -0.01934016681765        0.77539298111253        0.23780323421318
C           -0.44244933008890        0.30030267058747       -0.97059928650457
S           -0.11478451898007        1.27274771990402       -2.36613404127902
S            1.65918099049377        4.36890488795482       -0.44786398082546
S            3.07945618971987        7.87101287049692       -0.81589797700127
C            3.63027958795707       10.41839780036769       -1.27608956629674
H            3.81211452520541       12.35242144682464       -2.17811337164950
H            4.85243108871481       13.14661429298012        0.22054926743722
H            3.98430173052427        7.99783764628532        2.50689934465134
H            2.91663279966804        5.67222608670005        1.92852472323253
H            1.93862143116223        6.51483737447425       -3.22469874044885
H            0.84315626528797        4.19864631694742       -3.79136022779292
H            1.06406640595131        2.66677349161727        0.88142624346527
H           -0.13814722541816        0.30837197570615        1.19381363456871
H           -0.95674084779603       -0.58051253659403       -1.25714172353674
H            3.19727327873421        9.76296616323386       -2.01882063715782
30
 energy: -52.151266153046 gnorm: 0.207245476915 xtb: 6.5.0 (746241f)
C            4.00099894368675       11.82364477601990       -1.28166386544638
C            4.52731405178083       12.27540932746924       -0.10702286876077
S            4.69359576490592       11.12392689787365        1.19624651402973
C            3.97756319868506       10.02397724033359        0.03132110898513
C            3.72603251890153        8.74425100540321        0.56069713945104
C            3.62541414018075        7.77902524600689        1.53632595738514
C            3.05783101604686        6.52655540589973        1.24186336894786
C            2.66133316972845        6.42206339268079       -0.06186708306629
C            2.10467092798443        5.80670421118613       -1.21153938783541
C            1.74752002819113        5.68214607494780       -2.52453605070793
C            1.15764495479203        4.43805252593020       -2.80990907649177
C            0.98261842000542        3.50419219600176       -1.81533658684888
C            0.55145983361509        2.29572932671650       -1.23580323035864
C            0.58834077567655        1.96984260294489        0.10419511238451
C           -0.04385244196109        0.72307691032128        0.22537159948879
C           -0.47424819132705        0.22994302128007       -0.97143004767685
S           -0.16523500281257        1.19208255771487       -2.39655721739273
S            1.66297427899521        4.31705808475310       -0.38107635081397
S            3.09891992783332        7.91485305907620       -0.88858103966129
C            3.65713904920136       10.46392088670696       -1.23627100905682
H            3.83028158079886       12.40291457572951       -2.16994417367880
H            4.86543065429243       13.24382126379358        0.17589201112370
H            3.98688785122524        7.99801037388781        2.54099398642374
H            2.92540742703398        5.70394487573181        1.94576393768767
H            1.92304963174573        6.48628955636559       -3.23997376180111
H            0.83373816744996        4.20096721760995       -3.82339990610496
H            1.02558856757616        2.59513608686199        0.87633944133091
H           -0.16153406738011        0.25958773555047        1.18715886651667
H           -0.99190577043485       -0.66934603515018       -1.20669125036140
H            3.21942059358269        9.84011960035267       -2.00926613769080
30
 energy: -52.201052807311 gnorm: 0.161669302188 xtb: 6.5.0 (746241f)
C            4.02526096053498       11.87884394330191       -1.26351543655948
C            4.55379515865516       12.34928009741588       -0.09912108927248
S            4.71871253233706       11.20331578925828        1.21785894729894
C            4.00595929807786       10.07311341798134        0.07194411303137
C            3.73796278132795        8.75120191233028        0.53144011427977
C            3.64165142972674        7.81381557404671        1.53372890705601
C            3.07032469692969        6.55140710009741        1.21501504749724
C            2.69483297478132        6.47708605599656       -0.10617853504967
C            2.10201642480582        5.74042981734997       -1.17545547415446
C            1.75038423489466        5.65158751701877       -2.50188922548061
C            1.14521675621227        4.40229877183526       -2.80804071357172
C            0.98891103715626        3.49098614476726       -1.79041813400332
C            0.51862794387425        2.24803187598957       -1.27559681826967
C            0.55513486392594        1.92061396513269        0.06085931129035
C           -0.07113684903859        0.66840294294529        0.20801235491897
C           -0.50814496712511        0.15853000045517       -0.97752945627153
S           -0.21065700955258        1.12043844760013       -2.41322193101884
S            1.66662322359799        4.26770129204643       -0.32599255893010
S            3.12165827939435        7.95519377768162       -0.95014041249702
C            3.68591100755906       10.51421064066599       -1.19191313661708
H            3.85189542056861       12.45454992720223       -2.15606405995668
H            4.88043144228954       13.33722156983552        0.13660950659584
H            3.98364457437108        8.00129751155130        2.55695589530886
H            2.93434126242461        5.74545030919991        1.94430805089571
H            1.90891589791910        6.44721536727096       -3.23744876598404
H            0.82737468329798        4.20164138359625       -3.83663256354816
H            0.98068309708839        2.51524254586494        0.86514558391537
H           -0.18577906975386        0.20839127825029        1.17410540324898
H           -1.02541005983585       -0.75596661525733       -1.16262237877567
H            3.24525797355541        9.92636763856933       -1.99290254537681
30
 energy: -52.238466022631 gnorm: 0.112742326941 xtb: 6.5.0 (746241f)
C            4.04955220917931       11.93363035073345       -1.24126382363226
C            4.57954316702890       12.41750867886249       -0.08577034236966
S            4.73306495142298       11.26531638619268        1.22246385139295
C            4.02779100737158       10.11526255038353        0.10276063460525
C            3.74435762336409        8.75741882553868        0.48770092200226
C            3.65392560339321        7.84844312992927        1.51766988018603
C            3.07898695217476        6.57694153090198        1.17451273885037
C            2.72532736418702        6.53238973233543       -0.16187108188901
C            2.10231587941725        5.67385742185136       -1.12761634437591
C            1.75676117166548        5.62070901589337       -2.46518598386781
C            1.13646824849671        4.36690253576841       -2.79260200529422
C            0.99871733379808        3.47934798104515       -1.75034424674303
C            0.48946427653238        2.20849714345457       -1.30486496754150
C            0.52027798551612        1.86960414289629        0.02196222081064
C           -0.09979111266045        0.61450869805242        0.18688408361578
C           -0.54132696192615        0.09265706107109       -0.98912272926546
S           -0.24540649202538        1.06630566896305       -2.41290875860499
S            1.67123153028484        4.22701709787704       -0.28396511074365
S            3.14309165807160        7.98699670580574       -0.99833477403571
C            3.71340142174176       10.56740538563745       -1.15128239737322
H            3.87652440710817       12.50650546245633       -2.13636147774561
H            4.89757017312385       13.41840757614691        0.11015927285248
H            3.97540259520778        8.01094248242122        2.54949921430812
H            2.94273270403076        5.79106434738637        1.92103432376403
H            1.89993061678952        6.40193823802322       -3.21490625903396
H            0.82426450499001        4.19712600569814       -3.82615711217170
H            0.93335926445484        2.43450776286551        0.84954542729123
H           -0.21036961164195        0.15558339305398        1.15456793769287
H           -1.05489955272835       -0.83292857150869       -1.13299814651098
H            3.27213108163138       10.01403326026348       -1.97190494617320
30
 energy: -52.261751228325 gnorm: 0.087071007781 xtb: 6.5.0 (746241f)
C            4.07361846166988       11.99076673776506       -1.21710905867958
C            4.60355970687710       12.47469647758932       -0.06513646051012
S            4.73769209024600       11.30270967775775        1.21205718831139
C            4.04064624038412       10.14731257010550        0.11408312478435
C            3.74453931046396        8.76559704721603        0.43339732642232
C            3.66084298503765        7.87977846267985        1.48611512952864
C            3.08564559880831        6.60458486836781        1.12879488076930
C            2.74692202346680        6.57532154658170       -0.21607456397550
C            2.10673024232720        5.62133445002382       -1.07966387389820
C            1.76394795803170        5.58834059954503       -2.42265711218690
C            1.13378364631701        4.33450108390183       -2.76190547157030
C            1.00996488481021        3.46752565934169       -1.69844841758848
C            0.46784074809597        2.17986582527934       -1.31424197061710
C            0.48525500512701        1.81488066152422        0.00090496208115
C           -0.13078980469031        0.55917700748629        0.16451012287139
C           -0.57184689357307        0.03742858492440       -1.00826692702797
S           -0.26606177347576        1.03535231963978       -2.39878376370542
S            1.67785426797641        4.19778192139958       -0.24953586617671
S            3.15777580201578        8.00898832111396       -1.03761886060074
C            3.73663253214987       10.62618368116751       -1.12734195393737
H            3.90582173363210       12.56626800952108       -2.11036836355560
H            4.91925576124579       13.47994141902466        0.11016831180503
H            3.96642054651649        8.03641195446430        2.51449956749782
H            2.95157828156800        5.83513807895118        1.87876667358989
H            1.89913665533246        6.35441594654873       -3.17592742019229
H            0.82197481052849        4.17729793847725       -3.78836706968436
H            0.88750687952527        2.35675765670225        0.83963856175360
H           -0.23868244385408        0.09420328026892        1.12853219724987
H           -1.07962770238476       -0.89398699930250       -1.13229036383714
H            3.29646244582449       10.09932521193358       -1.95643052892085
30
 energy: -52.276114780293 gnorm: 0.080444038528 xtb: 6.5.0 (746241f)
C            4.09724502052772       12.05131660926688       -1.19469531769489
C            4.62587598045489       12.51886787519509       -0.03763868716142
S            4.73806064864404       11.31856834639792        1.19667173490494
C            4.04607705754303       10.17013180091482        0.10485946736021
C            3.74108793751314        8.77974210552196        0.37507616106580
C            3.66396948650318        7.90945513859964        1.44235814578134
C            3.09359369466189        6.63710409087765        1.08717427024873
C            2.75869198331546        6.60135185365021       -0.25822720954273
C            2.11392091633837        5.58820256540387       -1.04179543126908
C            1.76824928497683        5.55165634702835       -2.38371163066240
C            1.13560885539229        4.30333444002124       -2.71930585043108
C            1.01930332886576        3.45171056000109       -1.64124134667981