[Molden Format]
[Title]
[Atoms] AU
C      1     6  0.17435515619967E+01  0.89655577589385E+01  0.17789684176300E+00
C      2     6 -0.54158816329824E+00  0.98490709560664E+01 -0.58608431452279E+00
S      3    16 -0.27076239838975E+01  0.74631246488237E+01 -0.99571671485156E+00
C      4     6 -0.48157405319276E+00  0.52034610964476E+01 -0.11702168476192E+00
C      5     6 -0.11220225888768E+01  0.25816402353350E+01 -0.57628692167630E-01
C      6     6 -0.33870304905995E+01  0.14654667125571E+01 -0.62997175025971E+00
C      7     6 -0.33429899573218E+01 -0.11815577342885E+01 -0.36962832254103E+00
C      8     6 -0.10575652936918E+01 -0.20652423393492E+01  0.39566038085878E+00
S      9    16  0.11040335699867E+01  0.32211126682053E+00  0.82136966569709E+00
C     10     6  0.17852012211335E+01  0.63194029484380E+01  0.44778763987546E+00
H     11     1  0.33482063636454E+01  0.10159738461894E+02  0.53658229320452E+00
H     12     1 -0.11030493031505E+01  0.11762614098951E+02 -0.93868580558986E+00
H     13     1 -0.50174677494910E+01  0.25267536607855E+01 -0.12162195630540E+01
H     14     1 -0.49448012375467E+01 -0.23758558515132E+01 -0.73826234904202E+00
H     15     1 -0.49471289873615E+00 -0.39795182269759E+01  0.74346958747977E+00
H     16     1  0.34163495361242E+01  0.52576449630368E+01  0.10365927112608E+01
[GTO]
           1 0
 s           4   1.00000000000000     
   51.0493630955799      -0.163120632101274     
   8.79112274068875      -0.199110245810007     
  0.706404222589298       0.318820477536558     
  0.269228134134116       0.127065041842404     
 p           4   1.00000000000000     
   5.82636561408000       0.737164515452096     
   1.51068960187200       0.682163716148503     
  0.532564832880000       0.357830539292537     
  0.212023236906000       5.398303027584788E-002
 
           2 0
 s           4   1.00000000000000     
   51.0493630955799      -0.163120632101274     
   8.79112274068875      -0.199110245810007     
  0.706404222589298       0.318820477536558     
  0.269228134134116       0.127065041842404     
 p           4   1.00000000000000     
   5.82636561408000       0.737164515452096     
   1.51068960187200       0.682163716148503     
  0.532564832880000       0.357830539292537     
  0.212023236906000       5.398303027584788E-002
 
           3 0
 s           4   1.00000000000000     
   5.94059715667128      -8.937241731159805E-002
   1.67332031646937      -0.180826416098390     
  0.300052353376111       0.217239963388792     
  0.147626982610695       6.093036238655329E-002
 p           4   1.00000000000000     
   7.60402394306428      -0.258148203245547     
  0.785799530644415       0.290555694475872     
  0.355154539932778       0.228494836712103     
  0.171689541475341       3.379048730081900E-002
 d           3   1.00000000000000     
   1.51575937639239       0.574808919567051     
  0.475268595433768       0.261853961962925     
  0.185128831077629       3.488754942672512E-002
 
           4 0
 s           4   1.00000000000000     
   51.0493630955799      -0.163120632101274     
   8.79112274068875      -0.199110245810007     
  0.706404222589298       0.318820477536558     
  0.269228134134116       0.127065041842404     
 p           4   1.00000000000000     
   5.82636561408000       0.737164515452096     
   1.51068960187200       0.682163716148503     
  0.532564832880000       0.357830539292537     
  0.212023236906000       5.398303027584788E-002
 
           5 0
 s           4   1.00000000000000     
   51.0493630955799      -0.163120632101274     
   8.79112274068875      -0.199110245810007     
  0.706404222589298       0.318820477536558     
  0.269228134134116       0.127065041842404     
 p           4   1.00000000000000     
   5.82636561408000       0.737164515452096     
   1.51068960187200       0.682163716148503     
  0.532564832880000       0.357830539292537     
  0.212023236906000       5.398303027584788E-002
 
           6 0
 s           4   1.00000000000000     
   51.0493630955799      -0.163120632101274     
   8.79112274068875      -0.199110245810007     
  0.706404222589298       0.318820477536558     
  0.269228134134116       0.127065041842404     
 p           4   1.00000000000000     
   5.82636561408000       0.737164515452096     
   1.51068960187200       0.682163716148503     
  0.532564832880000       0.357830539292537     
  0.212023236906000       5.398303027584788E-002
 
           7 0
 s           4   1.00000000000000     
   51.0493630955799      -0.163120632101274     
   8.79112274068875      -0.199110245810007     
  0.706404222589298       0.318820477536558     
  0.269228134134116       0.127065041842404     
 p           4   1.00000000000000     
   5.82636561408000       0.737164515452096     
   1.51068960187200       0.682163716148503     
  0.532564832880000       0.357830539292537     
  0.212023236906000       5.398303027584788E-002
 
           8 0
 s           4   1.00000000000000     
   51.0493630955799      -0.163120632101274     
   8.79112274068875      -0.199110245810007     
  0.706404222589298       0.318820477536558     
  0.269228134134116       0.127065041842404     
 p           4   1.00000000000000     
   5.82636561408000       0.737164515452096     
   1.51068960187200       0.682163716148503     
  0.532564832880000       0.357830539292537     
  0.212023236906000       5.398303027584788E-002
 
           9 0
 s           4   1.00000000000000     
   5.94059715667128      -8.937241731159805E-002
   1.67332031646937      -0.180826416098390     
  0.300052353376111       0.217239963388792     
  0.147626982610695       6.093036238655329E-002
 p           4   1.00000000000000     
   7.60402394306428      -0.258148203245547     
  0.785799530644415       0.290555694475872     
  0.355154539932778       0.228494836712103     
  0.171689541475341       3.379048730081900E-002
 d           3   1.00000000000000     
   1.51575937639239       0.574808919567051     
  0.475268595433768       0.261853961962925     
  0.185128831077629       3.488754942672512E-002
 
          10 0
 s           4   1.00000000000000     
   51.0493630955799      -0.163120632101274     
   8.79112274068875      -0.199110245810007     
  0.706404222589298       0.318820477536558     
  0.269228134134116       0.127065041842404     
 p           4   1.00000000000000     
   5.82636561408000       0.737164515452096     
   1.51068960187200       0.682163716148503     
  0.532564832880000       0.357830539292537     
  0.212023236906000       5.398303027584788E-002
 
          11 0
 s           3   1.00000000000000     
   3.37022769753360       0.273591105889083     
  0.613891182214980       0.264605406538605     
  0.166142911484160       8.246594753408230E-002
 
          12 0
 s           3   1.00000000000000     
   3.37022769753360       0.273591105889083     
  0.613891182214980       0.264605406538605     
  0.166142911484160       8.246594753408230E-002
 
          13 0
 s           3   1.00000000000000     
   3.37022769753360       0.273591105889083     
  0.613891182214980       0.264605406538605     
  0.166142911484160       8.246594753408230E-002
 
          14 0
 s           3   1.00000000000000     
   3.37022769753360       0.273591105889083     
  0.613891182214980       0.264605406538605     
  0.166142911484160       8.246594753408230E-002
 
          15 0
 s           3   1.00000000000000     
   3.37022769753360       0.273591105889083     
  0.613891182214980       0.264605406538605     
  0.166142911484160       8.246594753408230E-002
 
          16 0
 s           3   1.00000000000000     
   3.37022769753360       0.273591105889083     
  0.613891182214980       0.264605406538605     
  0.166142911484160       8.246594753408230E-002
 
[MO]
Sym=     1a
Ene=  -0.731881347501387     
Spin= Alpha
Occup=     2.00000000
           1  1.522273885499610E-002
           2 -1.128625179083117E-002
           3 -3.470354060433906E-003
           4 -3.010233141293679E-003
           5  6.594581884062596E-002
           6 -2.933504524613127E-002
           7 -3.834456500161489E-002
           8 -4.958798901818048E-003
           9  0.640145162703944     
          10  7.138908155535603E-003
          11  2.894805501174707E-004
          12  2.081814690366659E-003
          13 -1.527190737742579E-003
          14  1.991830709806350E-003
          15 -4.646399720637709E-004
          16  2.219748840714210E-004
          17 -4.139242170931869E-004
          18 -1.953002194871462E-004
          19  6.048964058026990E-002
          20 -3.134960160231454E-002
          21  4.306843363523852E-002
          22 -1.345664528563593E-002
          23 -6.020826673440544E-002
          24 -3.125283651926845E-002
          25  4.297757192053140E-002
          26 -1.340591626278887E-002
          27 -1.474564389691468E-002
          28 -1.097341376394576E-002
          29  2.986279418255651E-003
          30 -3.561170479070477E-003
          31 -1.514014882274585E-002
          32 -1.121533288047414E-002
          33 -3.455599398806263E-003
          34 -3.031794428384243E-003
          35 -6.567823837134781E-002
          36 -2.915968899723230E-002
          37 -3.821556294026251E-002
          38 -5.186936893337167E-003
          39 -0.637948858237390     
          40  7.097255464237865E-003
          41  2.926712263672192E-004
          42  2.107319944253776E-003
          43  1.521559001642418E-003
          44 -1.980552321441801E-003
          45  4.589933197993825E-004
          46 -2.198030207370533E-004
          47  4.255267518912692E-004
          48  1.911070693944935E-004
          49  1.482490782929559E-002
          50 -1.103462476203908E-002
          51  2.994705434094995E-003
          52 -3.565497640704802E-003
          53 -1.749568423757290E-003
          54 -9.535620162931498E-003
          55 -4.205206779784912E-003
          56  1.744067254582747E-003
          57  9.508565773581352E-003
          58  4.181076526495279E-003
Sym=     2a
Ene=  -0.731494134444178     
Spin= Alpha
Occup=     2.00000000
           1  1.505624511733228E-002
           2 -1.140192935432376E-002
           3 -3.645754055977390E-003
           4 -3.027617290940631E-003
           5  6.567682486368573E-002
           6 -2.919899609529402E-002
           7 -3.840822105870190E-002
           8 -4.912913169366605E-003
           9  0.636783997727143     
          10  7.708360710631035E-003
          11 -7.794733951988854E-004
          12  2.353309016955625E-003
          13 -1.649109121271880E-003
          14  3.153963333233949E-003
          15 -1.504854211962069E-003
          16 -5.817645633401490E-004
          17  3.280868169931726E-005
          18 -6.945948215131820E-004
          19  7.862838028424415E-002
          20 -2.958856942387144E-002
          21  2.450486639527195E-002
          22 -1.115956982865622E-002
          23  7.883195017468400E-002
          24  2.970495772862911E-002
          25 -2.464896926619073E-002
          26  1.119611344012427E-002
          27  1.704235317406567E-002
          28  1.316085631213879E-002
          29 -1.035364420277234E-003
          30  4.030983120826606E-003
          31  1.507874866493816E-002
          32  1.140999005884627E-002
          33  3.655668050171358E-003
          34  3.071184894050134E-003
          35  6.586914648823744E-002
          36  2.922842148937257E-002
          37  3.854742860938636E-002
          38  5.175910841116273E-003
          39  0.639052880937379     
          40 -7.718210030890981E-003
          41  7.781505883053955E-004
          42 -2.394867279171287E-003
          43 -1.654158664115659E-003
          44  3.160725023513966E-003
          45 -1.506566359398307E-003
          46 -5.854600340232702E-004
          47  1.957236672942454E-005
          48 -6.937890751755906E-004
          49  1.701126824278328E-002
          50 -1.313964287352401E-002
          51  1.031190734283570E-003
          52 -4.000857015098936E-003
          53 -1.672031507171573E-003
          54 -9.441835832052166E-003
          55 -7.327560405155197E-003
          56 -1.678535646651014E-003
          57 -9.480447343899053E-003
          58 -7.341835610884267E-003
Sym=     3a
Ene=  -0.645751260264038     
Spin= Alpha
Occup=     2.00000000
           1 -0.275018440747283     
           2  6.150772775007760E-002
           3  6.676243097792005E-002
           4  1.175663679043100E-002
           5 -0.161231917235700     
           6 -9.051781430517682E-002
           7  4.837863390744090E-002
           8 -3.156024914701943E-002
           9  0.156447346980898     
          10 -8.729895404963085E-002
          11 -1.390256044772411E-002
          12 -2.454328855147738E-002
          13  1.118041882609643E-002
          14 -1.114633060517835E-002
          15 -3.408822091807664E-005
          16 -5.326061715451829E-005
          17  4.184847974064186E-003
          18  1.122193531739093E-003
          19 -0.147896692874588     
          20 -0.115916516623495     
          21 -7.746631524294183E-002
          22 -2.696649671052454E-002
          23  0.133035986082317     
          24 -0.112795516484930     
          25 -7.913863427112071E-002
          26 -2.622940613784420E-002
          27  0.272456263167276     
          28  6.188384039765306E-002
          29 -5.357377807786767E-002
          30  2.349725149209068E-002
          31  0.264514847085895     
          32  5.920419879224732E-002
          33  6.365528769748452E-002
          34  1.174091739457538E-002
          35  0.156643296287426     
          36 -8.637617811171036E-002
          37  4.667972962880508E-002
          38 -3.017288753090020E-002
          39 -0.147087805754416     
          40 -8.292509912699308E-002
          41 -1.614820122780021E-002
          42 -2.331288019892475E-002
          43 -1.085763283420622E-002
          44  1.070927072261520E-002
          45  1.483621115910221E-004
          46  2.387588715086136E-004
          47 -4.168756114532173E-003
          48 -9.566062097810320E-004
          49 -0.285867072657257     
          50  6.593630845880583E-002
          51 -5.437461553383147E-002
          52  2.486310204656821E-002
          53 -5.358962040407146E-002
          54 -2.944816413964189E-002
          55  5.491362202513388E-002
          56  5.159066249349051E-002
          57  2.873587653739658E-002
          58 -5.765028781721249E-002
Sym=     4a
Ene=  -0.645552995235266     
Spin= Alpha
Occup=     2.00000000
           1  0.199825090557295     
           2 -4.052219162007645E-002
           3 -6.437209762979612E-002
           4 -5.775152629402430E-003
           5  7.994721776809242E-002
           6  7.935005252181024E-002
           7 -3.258067193558611E-002
           8  2.669284587955896E-002
           9 -0.185215516288374     
          10  8.440110774725190E-002
          11 -5.009842910705913E-002
          12  2.983454861434784E-002
          13 -5.671668851661619E-003
          14  8.518817862781303E-003
          15 -2.847149011119684E-003
          16 -4.391470712517627E-003
          17 -5.030647752903551E-004
          18 -2.592988734149701E-003
          19  0.311664835853136     
          20  5.861014050746692E-002
          21 -4.056827746670193E-002
          22  2.110493630409518E-002
          23  0.318534197746937     
          24 -6.409172263175268E-002
          25  3.671939521366825E-002
          26 -2.284189402289001E-002
          27  0.283707519948274     
          28  8.569861697394543E-002
          29 -1.374689194577789E-002
          30  2.683973033644114E-002
          31  0.212880927332102     
          32  4.333179580009073E-002
          33  6.762819879041922E-002
          34  6.612934172985889E-003
          35  8.756605534493592E-002
          36 -8.355678810202960E-002
          37  3.488414470484967E-002
          38 -2.826013379027977E-002
          39 -0.192475384258830     
          40 -8.845111884832710E-002
          41  4.936343252664583E-002
          42 -3.116652471988134E-002
          43 -6.185762896625594E-003
          44  9.055545829018819E-003
          45 -2.869782932393224E-003
          46 -4.402509551128779E-003
          47 -7.333822712374676E-004
          48 -2.600691554978731E-003
          49  0.270017026766245     
          50 -8.261744663685625E-002
          51  1.113049306506617E-002
          52 -2.566110243559611E-002
          53  3.812758831976535E-002
          54  1.117979007500153E-002
          55  6.059913008320162E-002
          56  4.068780775607454E-002
          57  1.256344120805115E-002
          58  5.772448866809151E-002
Sym=     5a
Ene=  -0.633354673348152     
Spin= Alpha
Occup=     2.00000000
           1 -0.251084570561568     
           2  6.585577222894398E-002
           3 -1.205470254777780E-002
           4  2.070079563148071E-002
           5 -0.244743624510738     
           6 -6.618283261785361E-002
           7  3.068705712793469E-002
           8 -2.264042862292742E-002
           9  1.408032593788745E-002
          10 -2.559809846758774E-002
          11 -0.112891325348878     
          12  3.331371742402487E-003
          13  9.000800408211041E-003
          14 -8.382009971959424E-003
          15 -6.187904362516174E-004
          16 -9.300949237163911E-003
          17  4.672429673712644E-003
          18 -2.046351810850566E-003
          19  0.282829122718744     
          20 -3.453430997749582E-002
          21 -0.144625292528515     
          22  3.582578797954413E-003
          23  0.282291017225223     
          24  3.482908876643052E-002
          25  0.144909642475676     
          26 -3.373320310073293E-003
          27 -1.761690752108699E-002
          28  3.971262406728895E-002
          29  0.129991659328164     
          30 -3.287179224256282E-004
          31 -0.251361427099864     
          32 -6.578957655407118E-002
          33  1.173952387979862E-002
          34 -2.076396009791549E-002
          35 -0.244602336178073     
          36  6.624813236311226E-002
          37 -3.080557467783596E-002
          38  2.263199309820784E-002
          39  1.424235541066068E-002
          40  2.562825543320459E-002
          41  0.112821761935755     
          42 -2.920707279694543E-003
          43  9.027647786368071E-003
          44 -8.410064278932478E-003
          45 -6.175835074355929E-004
          46 -9.277234859506737E-003
          47  4.672075195220340E-003
          48 -2.083690709636305E-003
          49 -1.678905360083425E-002
          50 -4.001740719979633E-002
          51 -0.129944129064976     
          52  7.041902537968439E-004
          53 -6.221810518025091E-002
          54 -6.426334899757584E-002
          55  9.081063579838518E-003
          56 -6.227277743363489E-002
          57 -6.415612875653931E-002
          58  9.282279609544341E-003
Sym=     6a
Ene=  -0.609184314168570     
Spin= Alpha
Occup=     2.00000000
           1  0.180504836881369     
           2 -7.780054813559834E-002
           3  0.125144960217056     
           4 -3.527148540297281E-002
           5  0.300455298297885     
           6  6.801457912089871E-002
           7  2.907011099770462E-002
           8  1.735158391371295E-002
           9 -3.450496206699415E-002
          10  8.893487607215752E-003
          11  8.891952549574558E-002
          12 -6.053487931798955E-003
          13  2.729846640491429E-003
          14  3.284906691969892E-004
          15 -3.058337309688418E-003
          16  1.326480922007927E-002
          17  6.519852791945636E-004
          18  3.558961927378060E-003
          19 -0.188482398809557     
          20 -9.919913004177862E-002
          21 -7.609687730819617E-002
          22 -2.223448080435554E-002
          23  0.188883542115704     
          24 -9.900771577832009E-002
          25 -7.566241607090791E-002
          26 -2.232341594171224E-002
          27  0.207537221170432     
          28  5.584781320538162E-002
          29  8.880742610766655E-002
          30  8.425942740506240E-003
          31 -0.180977685719023     
          32 -7.788241731814656E-002
          33  0.124965591056775     
          34 -3.492508417559127E-002
          35 -0.300575926341206     
          36  6.804037374795419E-002
          37  2.892501991218537E-002
          38  1.760815953469597E-002
          39  3.450070016383785E-002
          40  8.836722555641928E-003
          41  8.908236470615721E-002
          42 -5.617777623882785E-003
          43 -2.678380038394546E-003
          44 -3.574442322475101E-004
          45  3.035824270642056E-003
          46 -1.326034455828392E-002
          47 -6.964430479259236E-004
          48 -3.633135685881075E-003
          49 -0.207897049733739     
          50  5.597501541146382E-002
          51  8.845912201769605E-002
          52  7.985771016318267E-003
          53  6.786744242174972E-002
          54  0.119322536493069     
          55  7.166844474372298E-002
          56 -6.798680531768238E-002
          57 -0.119260505553765     
          58 -7.163786722534904E-002
Sym=     7a
Ene=  -0.584833732995917     
Spin= Alpha
Occup=     2.00000000
           1  2.585997649428413E-002
           2  0.114551660984852     
           3 -0.175919047685951     
           4  5.113669763422276E-002
           5 -0.276639527439881     
           6 -3.113345628998216E-002
           7 -8.033464546779759E-002
           8 -1.400175803686729E-003
           9  0.113235590754514     
          10 -7.222380311593729E-002
          11 -2.092354415285202E-002
          12 -1.930226267657235E-002
          13 -4.846412594666669E-003
          14 -1.540300476707198E-003
          15  6.386713071373866E-003
          16 -4.726018455558697E-003
          17 -3.698742904497271E-003
          18 -3.962793234477477E-004
          19 -0.162010142064739     
          20  7.702562553339633E-002
          21  0.160444186503929     
          22  7.525138218691407E-003
          23 -0.161984056398898     
          24 -7.712402351409479E-002
          25 -0.160396168259025     
          26 -7.779678053021858E-003
          27  0.234380057055305     
          28 -6.904509342989044E-002
          29 -7.409417158959858E-002
          30 -1.362779562960518E-002
          31  2.550554964284060E-002
          32 -0.114799158887537     
          33  0.176030222354220     
          34 -5.071526654510847E-002
          35 -0.276930002943678     
          36  3.123497943297990E-002
          37  8.025985370320142E-002
          38  1.845205090712317E-003
          39  0.113421248146090     
          40  7.225674266524108E-002
          41  2.091444453224071E-002
          42  1.978722866179463E-002
          43 -4.812648935718606E-003
          44 -1.556579393119240E-003
          45  6.369228328837846E-003
          46 -4.729219136105926E-003
          47 -3.756023687135015E-003
          48 -4.785712482603987E-004
          49  0.234150893957426     
          50  6.897642442843323E-002
          51  7.433693566136859E-002
          52  1.333618963621340E-002
          53  7.727578057462984E-003
          54 -0.156764857760248     
          55  0.103721706413406     
          56  7.656840754795051E-003
          57 -0.156773917788198     
          58  0.103399133360951     
Sym=     8a
Ene=  -0.569197140655573     
Spin= Alpha
Occup=     2.00000000
           1  0.235160982350511     
           2  0.121856589008968     
           3 -3.724168058504444E-002
           4  3.973828341035891E-002
           5 -0.224938195935167     
           6  0.122719540380368     
           7 -5.919151970789698E-002
           8  4.212428958808139E-002
           9  7.176263477100549E-002
          10 -7.371894428584325E-002
          11 -0.164991287759303     
          12 -5.876927353726791E-003
          13  1.370905731839261E-003
          14 -5.704608697413340E-003
          15  4.333702965574079E-003
          16 -1.207611344759793E-003
          17 -9.984512656338789E-004
          18  7.994008737917235E-004
          19 -7.284400697412510E-002
          20 -0.154657459836079     
          21  1.451143851197888E-003
          22 -4.617208027575648E-002
          23  7.288085575939754E-002
          24 -0.154554482263711     
          25  1.455506011024918E-003
          26 -4.624517233555821E-002
          27  1.008194184505727E-002
          28  8.950188954689409E-002
          29  0.178432291900734     
          30  1.009544784865365E-002
          31 -0.235114280026922     
          32  0.121882582617457     
          33 -3.729764847552463E-002
          34  3.996582995325725E-002
          35  0.225053871908024     
          36  0.122517278399671     
          37 -5.911536880131039E-002
          38  4.222604983127059E-002
          39 -7.179402859433026E-002
          40 -7.358669532036675E-002
          41 -0.165005179114547     
          42 -6.589941972505908E-003
          43 -1.387508824380911E-003
          44  5.712188220326725E-003
          45 -4.324679395945814E-003
          46  1.206203428063102E-003
          47  1.030770974908671E-003
          48 -7.617269132761803E-004
          49 -1.024306451784237E-002
          50  8.964705045947778E-002
          51  0.178403358126666     
          52  9.232752103629685E-003
          53  0.145430294770332     
          54 -0.161177253511646     
          55  1.711391988221253E-002
          56 -0.145478256704956     
          57  0.161135135072966     
          58 -1.723799963583929E-002
Sym=     9a
Ene=  -0.553391582218551     
Spin= Alpha
Occup=     2.00000000
           1 -4.318015616525479E-002
           2 -0.130746051996918     
           3  5.248087340767509E-002
           4 -4.392014864234699E-002
           5  3.652799088427773E-003
           6  0.102157900194742     
           7 -4.932555895360848E-002
           8  3.505081055160952E-002
           9 -0.155802340556990     
          10  0.170558576513734     
          11 -0.193149687023696     
          12  6.923408236178775E-002
          13 -7.666018431537568E-003
          14  6.183663809834537E-003
          15  1.482354621703031E-003
          16 -2.870986238509082E-003
          17 -3.084271036290749E-003
          18 -1.299838629417760E-003
          19  0.206494306702004     
          20 -0.108532187913821     
          21  0.137673242232270     
          22 -4.548016848294655E-002
          23 -0.206713200142412     
          24 -0.109282606265115     
          25  0.137491276654645     
          26 -4.569250560878561E-002
          27  0.170022475917990     
          28 -0.196149805976069     
          29  1.465444799270172E-002
          30 -6.003948208006404E-002
          31  4.173654659721415E-002
          32 -0.130234321805241     
          33  5.278293826041757E-002
          34 -4.384868334296182E-002
          35 -2.475894534485939E-003
          36  0.103147834089496     
          37 -4.977237209420569E-002
          38  3.556870735491856E-002
          39  0.155379844682232     
          40  0.170281000311511     
          41 -0.194283604580775     
          42  6.926144625841958E-002
          43  7.639234687971397E-003
          44 -6.159842391937888E-003
          45 -1.479392296033509E-003
          46  2.916742593451625E-003
          47  3.125242919676881E-003
          48  1.304578726877619E-003
          49 -0.169203250167513     
          50 -0.196208140933056     
          51  1.376569490816620E-002
          52 -5.959531583656130E-002
          53 -7.192962926526625E-002
          54 -4.886415022735904E-002
          55  0.191292137919318     
          56  7.095194048934157E-002
          57  4.994213448493691E-002
          58 -0.190521477126734     
Sym=    10a
Ene=  -0.552742437860975     
Spin= Alpha
Occup=     2.00000000
           1  0.242526002626252     
           2  0.112858022496717     
           3  0.112828203955102     
           4  2.243998471152980E-002
           5 -0.144336223410125     
           6  0.167895918214615     
           7 -7.739372901831161E-004
           8  4.984687977323035E-002
           9  9.400022109269660E-002
          10 -9.595435672950485E-002
          11 -0.177807080998519     
          12 -1.113461126661920E-002
          13  4.313168677500010E-003
          14 -4.892264857670998E-003
          15  5.790961801709881E-004
          16 -3.083627407760714E-003
          17  1.740341101230680E-003
          18 -3.575823288791891E-004
          19  3.041990241895149E-002
          20 -0.149266729928639     
          21 -0.114438249559245     
          22 -3.317356997831596E-002
          23  2.924587950616305E-002
          24  0.148455833436061     
          25  0.115264699695602     
          26  3.362155417820505E-002
          27 -0.152544471504030     
          28 -5.846029633405377E-002
          29 -9.773315375597875E-002
          30 -8.379366637875044E-003
          31  0.242854597249536     
          32 -0.113413483468125     
          33 -0.112550131906127     
          34 -2.347441743037157E-002
          35 -0.144403287430087     
          36 -0.167100997298826     
          37  4.797905515650991E-004
          38 -5.006951362087082E-002
          39  9.481198271247659E-002
          40  9.660305307801488E-002
          41  0.176779715158317     
          42  1.248283525848674E-002
          43  4.351091212836478E-003
          44 -4.929935965353886E-003
          45  5.788447525174075E-004
          46 -3.063224810945358E-003
          47  1.757655645791481E-003
          48 -3.711705883131595E-004
          49 -0.153488881007073     
          50  5.752461062993632E-002
          51  9.768155072459328E-002
          52  7.527901304832949E-003
          53  0.208310565277662     
          54 -0.109022143017872     
          55 -6.233098630753298E-002
          56  0.208787766941186     
          57 -0.108740481903678     