      -----------------------------------------------------------      
     |                   =====================                   |     
     |                           x T B                           |     
     |                   =====================                   |     
     |                         S. Grimme                         |     
     |          Mulliken Center for Theoretical Chemistry        |     
     |                    University of Bonn                     |     
      -----------------------------------------------------------      

   * xtb version 6.5.0 (746241f) compiled by 'ehlert@majestix' on 2022-05-15

   xtb is free software: you can redistribute it and/or modify it under
   the terms of the GNU Lesser General Public License as published by
   the Free Software Foundation, either version 3 of the License, or
   (at your option) any later version.
   
   xtb is distributed in the hope that it will be useful,
   but WITHOUT ANY WARRANTY; without even the implied warranty of
   MERCHANTABILITY or FITNESS FOR A PARTICULAR PURPOSE.  See the
   GNU Lesser General Public License for more details.
   
   Cite this work as:
   * C. Bannwarth, E. Caldeweyher, S. Ehlert, A. Hansen, P. Pracht,
     J. Seibert, S. Spicher, S. Grimme, WIREs Comput. Mol. Sci., 2020, 11,
     e01493. DOI: 10.1002/wcms.1493
   
   for GFN2-xTB:
   * C. Bannwarth, S. Ehlert and S. Grimme., J. Chem. Theory Comput., 2019,
     15, 1652-1671. DOI: 10.1021/acs.jctc.8b01176
   for GFN1-xTB:
   * S. Grimme, C. Bannwarth, P. Shushkov, J. Chem. Theory Comput., 2017,
     13, 1989-2009. DOI: 10.1021/acs.jctc.7b00118
   for GFN0-xTB:
   * P. Pracht, E. Caldeweyher, S. Ehlert, S. Grimme, ChemRxiv, 2019, preprint.
     DOI: 10.26434/chemrxiv.8326202.v1
   for GFN-FF:
   * S. Spicher and S. Grimme, Angew. Chem. Int. Ed., 2020, 59, 15665-15673.
     DOI: 10.1002/anie.202004239
   
   for ALPB and GBSA implicit solvation:
   * S. Ehlert, M. Stahn, S. Spicher, S. Grimme, J. Chem. Theory Comput.,
     2021, 17, 4250-4261. DOI: 10.1021/acs.jctc.1c00471
   
   for DFT-D4:
   * E. Caldeweyher, C. Bannwarth and S. Grimme, J. Chem. Phys., 2017,
     147, 034112. DOI: 10.1063/1.4993215
   * E. Caldeweyher, S. Ehlert, A. Hansen, H. Neugebauer, S. Spicher,
     C. Bannwarth and S. Grimme, J. Chem. Phys., 2019, 150, 154122.
     DOI: 10.1063/1.5090222
   * E. Caldeweyher, J.-M. Mewes, S. Ehlert and S. Grimme, Phys. Chem. Chem. Phys.
     2020, 22, 8499-8512. DOI: 10.1039/D0CP00502A
   
   for sTDA-xTB:
   * S. Grimme and C. Bannwarth, J. Chem. Phys., 2016, 145, 054103.
     DOI: 10.1063/1.4959605
   
   in the mass-spec context:
   * V. Asgeirsson, C. Bauer and S. Grimme, Chem. Sci., 2017, 8, 4879.
     DOI: 10.1039/c7sc00601b
   * J. Koopman and S. Grimme, ACS Omega 2019, 4, 12, 15120-15133.
     DOI: 10.1021/acsomega.9b02011
   
   for metadynamics refer to:
   * S. Grimme, J. Chem. Theory Comput., 2019, 155, 2847-2862
     DOI: 10.1021/acs.jctc.9b00143
   
   for SPH calculations refer to:
   * S. Spicher and S. Grimme, J. Chem. Theory Comput., 2021, 17, 1701-1714
     DOI: 10.1021/acs.jctc.0c01306
   
   with help from (in alphabetical order)
   P. Atkinson, C. Bannwarth, F. Bohle, G. Brandenburg, E. Caldeweyher
   M. Checinski, S. Dohm, S. Ehlert, S. Ehrlich, I. Gerasimov, C. Hölzer
   A. Katbashev, J. Koopman, C. Lavigne, S. Lehtola, F. März, M. Müller,
   F. Musil, H. Neugebauer, J. Pisarek, C. Plett, P. Pracht, F. Pultar,
   J. Seibert, P. Shushkov, S. Spicher, M. Stahn, M. Steiner, T. Strunk,
   J. Stückrath, T. Rose, and J. Unsleber
   
 * started run on 2022/07/20 at 15:45:08.434     

           -------------------------------------------------
          |                Calculation Setup                |
           -------------------------------------------------

          program call               : xtb -c 0 -u 0 --opt --molden oligothiophene_n2.xyz
          coordinate file            : oligothiophene_n2.xyz
          omp threads                :                    16

   ID    Z sym.   atoms
    1    6 C      1, 2, 4-8, 10
    2   16 S      3, 9
    3    1 H      11-16

           -------------------------------------------------
          |                 G F N 2 - x T B                 |
           -------------------------------------------------

        Reference                      10.1021/acs.jctc.8b01176
      * Hamiltonian:
        H0-scaling (s, p, d)           1.850000    2.230000    2.230000
        zeta-weighting                 0.500000
      * Dispersion:
        s8                             2.700000
        a1                             0.520000
        a2                             5.000000
        s9                             5.000000
      * Repulsion:
        kExp                           1.500000    1.000000
        rExp                           1.000000
      * Coulomb:
        alpha                          2.000000
        third order                    shell-resolved
        anisotropic                    true
        a3                             3.000000
        a5                             4.000000
        cn-shift                       1.200000
        cn-exp                         4.000000
        max-rad                        5.000000


          ...................................................
          :                      SETUP                      :
          :.................................................:
          :  # basis functions                  58          :
          :  # atomic orbitals                  56          :
          :  # shells                           28          :
          :  # electrons                        50          :
          :  max. iterations                   250          :
          :  Hamiltonian                  GFN2-xTB          :
          :  restarted?                      false          :
          :  GBSA solvation                  false          :
          :  PC potential                    false          :
          :  electronic temp.          300.0000000     K    :
          :  accuracy                    1.0000000          :
          :  -> integral cutoff          0.2500000E+02      :
          :  -> integral neglect         0.1000000E-07      :
          :  -> SCF convergence          0.1000000E-05 Eh   :
          :  -> wf. convergence          0.1000000E-03 e    :
          :  Broyden damping             0.4000000          :
          ...................................................

 iter      E             dE          RMSdq      gap      omega  full diag
   1    -26.9817627 -0.269818E+02  0.528E+00    4.56       0.0  T
   2    -27.0228558 -0.410931E-01  0.371E+00    4.62       1.0  T
   3    -27.0152265  0.762932E-02  0.998E-01    4.41       1.0  T
   4    -27.0261639 -0.109374E-01  0.502E-01    4.64       1.0  T
   5    -27.0276782 -0.151436E-02  0.179E-01    4.54       1.0  T
   6    -27.0278603 -0.182064E-03  0.683E-02    4.56       1.0  T
   7    -27.0278969 -0.366019E-04  0.244E-02    4.56       1.0  T
   8    -27.0278986 -0.173121E-05  0.114E-02    4.56       2.2  T
   9    -27.0278987 -0.708656E-07  0.221E-03    4.56      11.3  T
  10    -27.0278987 -0.204639E-07  0.353E-04    4.56      70.7  T
  11    -27.0278987 -0.116497E-09  0.127E-04    4.56     196.8  T

   *** convergence criteria satisfied after 11 iterations ***

         #    Occupation            Energy/Eh            Energy/eV
      -------------------------------------------------------------
         1        2.0000           -0.7937581             -21.5993
       ...           ...                  ...                  ...
        19        2.0000           -0.4457665             -12.1299
        20        2.0000           -0.4435407             -12.0694
        21        2.0000           -0.4246395             -11.5550
        22        2.0000           -0.4220007             -11.4832
        23        2.0000           -0.4080685             -11.1041
        24        2.0000           -0.3861891             -10.5087
        25        2.0000           -0.3789576             -10.3120 (HOMO)
        26                         -0.2113231              -5.7504 (LUMO)
        27                         -0.2094113              -5.6984
        28                         -0.1993605              -5.4249
        29                         -0.1765090              -4.8031
        30                         -0.1569203              -4.2700
       ...                                ...                  ...
        56                          6.8269579             185.7710
      -------------------------------------------------------------
                  HL-Gap            0.1676345 Eh            4.5616 eV
             Fermi-level           -0.2951404 Eh           -8.0312 eV

 SCC (total)                   0 d,  0 h,  0 min,  0.010 sec
 SCC setup                      ...        0 min,  0.000 sec (  1.570%)
 Dispersion                     ...        0 min,  0.000 sec (  2.494%)
 classical contributions        ...        0 min,  0.000 sec (  1.528%)
 integral evaluation            ...        0 min,  0.001 sec (  8.982%)
 iterations                     ...        0 min,  0.006 sec ( 64.949%)
 molecular gradient             ...        0 min,  0.002 sec ( 19.277%)
 printout                       ...        0 min,  0.000 sec (  1.034%)

         :::::::::::::::::::::::::::::::::::::::::::::::::::::
         ::                     SUMMARY                     ::
         :::::::::::::::::::::::::::::::::::::::::::::::::::::
         :: total energy             -25.189765861885 Eh    ::
         :: gradient norm              3.910102065792 Eh/a0 ::
         :: HOMO-LUMO gap              4.561567101398 eV    ::
         ::.................................................::
         :: SCC energy               -27.027898731312 Eh    ::
         :: -> isotropic ES            0.009771388394 Eh    ::
         :: -> anisotropic ES          0.004082806737 Eh    ::
         :: -> anisotropic XC          0.007815760543 Eh    ::
         :: -> dispersion             -0.017157167533 Eh    ::
         :: repulsion energy           1.838148097683 Eh    ::
         :: add. restraining           0.000000000000 Eh    ::
         :: total charge              -0.000000000000 e     ::
         :::::::::::::::::::::::::::::::::::::::::::::::::::::

      ----------------------------------------------------------- 
     |                   =====================                   |
     |                        A N C O P T                        |
     |                   =====================                   |
     |               Approximate Normal Coordinate               |
     |                Rational Function Optimizer                |
      ----------------------------------------------------------- 

          ...................................................
          :                      SETUP                      :
          :.................................................:
          :   optimization level            normal          :
          :   max. optcycles                   200          :
          :   ANC micro-cycles                  20          :
          :   degrees of freedom                42          :
          :.................................................:
          :   RF solver                   davidson          :
          :   write xtbopt.log                true          :
          :   linear?                        false          :
          :   energy convergence         0.5000000E-05 Eh   :
          :   grad. convergence          0.1000000E-02 Eh/α :
          :   maximium RF displ.         1.0000000          :
          :   Hlow (freq-cutoff)         0.1000000E-01      :
          :   Hmax (freq-cutoff)         5.0000000          :
          :   S6 in model hess.         20.0000000          :
          ...................................................

generating ANC from model Hessian ...
Using Lindh-Hessian (1995)
 Shifting diagonal of input Hessian by   0.000000000000000E+000
 Lowest  eigenvalues of input Hessian
    0.000000    0.000000    0.000000    0.000000    0.000000    0.000000
    0.010077    0.011206    0.018169    0.037851    0.053764    0.066855
    0.082100    0.086858    0.103420    0.111764    0.125644    0.138724
 Highest eigenvalues
    2.430264    2.432256    4.974572    5.265881    6.578163    6.726602
 

........................................................................
.............................. CYCLE    1 ..............................
........................................................................
   1    -27.0278987 -0.270279E+02  0.445E-05    4.56       0.0  T
   2    -27.0278987 -0.720846E-11  0.303E-05    4.56     824.5  T
   3    -27.0278987 -0.108642E-10  0.116E-05    4.56    2163.3  T
     SCC iter.                  ...        0 min,  0.007 sec
     gradient                   ...        0 min,  0.002 sec
 * total energy  :   -25.1897659 Eh     change       -0.5103828E-10 Eh
   gradient norm :     3.9101029 Eh/α   predicted     0.0000000E+00 (-100.00%)
   displ. norm   :     0.6011952 α      lambda       -0.2295177E+01
   maximum displ.:     0.4898710 α      in ANC's #40, #38, #34, ...

........................................................................
.............................. CYCLE    2 ..............................
........................................................................
   1    -27.1113952 -0.271114E+02  0.259E+00    4.64       0.0  T
   2    -27.1240434 -0.126482E-01  0.161E+00    4.59       1.0  T
   3    -27.1264289 -0.238555E-02  0.834E-01    4.65       1.0  T
   4    -27.1289344 -0.250541E-02  0.289E-01    4.60       1.0  T
   5    -27.1296753 -0.740909E-03  0.114E-01    4.61       1.0  T
   6    -27.1297315 -0.562169E-04  0.242E-02    4.62       1.0  T
   7    -27.1297348 -0.336268E-05  0.791E-03    4.61       3.2  T
   8    -27.1297350 -0.152756E-06  0.413E-03    4.61       6.1  T
   9    -27.1297350 -0.179097E-07  0.906E-04    4.61      27.6  T
  10    -27.1297350 -0.152496E-08  0.192E-04    4.61     130.0  T
     SCC iter.                  ...        0 min,  0.005 sec
     gradient                   ...        0 min,  0.002 sec
 * total energy  :   -26.3313799 Eh     change       -0.1141614E+01 Eh
   gradient norm :     0.8306373 Eh/α   predicted    -0.1562368E+01 (  36.86%)
   displ. norm   :     0.4091436 α      lambda       -0.2494366E+00
   maximum displ.:     0.2037509 α      in ANC's #38, #6, #24, ...

........................................................................
.............................. CYCLE    3 ..............................
........................................................................
   1    -27.1052278 -0.271052E+02  0.938E-01    4.22       0.0  T
   2    -27.1068218 -0.159406E-02  0.700E-01    4.19       1.0  T
   3    -27.1070940 -0.272209E-03  0.286E-01    4.19       1.0  T
   4    -27.1078531 -0.759072E-03  0.110E-01    4.19       1.0  T
   5    -27.1078917 -0.386210E-04  0.529E-02    4.19       1.0  T
   6    -27.1079105 -0.188060E-04  0.146E-02    4.19       1.7  T
   7    -27.1079116 -0.106113E-05  0.612E-03    4.19       4.1  T
   8    -27.1079117 -0.771193E-07  0.326E-03    4.19       7.7  T
   9    -27.1079117 -0.142163E-07  0.812E-04    4.19      30.8  T
  10    -27.1079117 -0.223789E-08  0.119E-04    4.19     210.4  T
     SCC iter.                  ...        0 min,  0.005 sec
     gradient                   ...        0 min,  0.002 sec
 * total energy  :   -26.5028696 Eh     change       -0.1714897E+00 Eh
   gradient norm :     0.4456734 Eh/α   predicted    -0.1455960E+00 ( -15.10%)
   displ. norm   :     0.4003016 α      lambda       -0.1024314E+00
   maximum displ.:     0.2513231 α      in ANC's #6, #24, #38, ...

........................................................................
.............................. CYCLE    4 ..............................
........................................................................
   1    -27.0805176 -0.270805E+02  0.697E-01    3.92       0.0  T
   2    -27.0812557 -0.738117E-03  0.648E-01    3.96       1.0  T
   3    -27.0832479 -0.199213E-02  0.307E-01    3.94       1.0  T
   4    -27.0832369  0.109312E-04  0.748E-02    3.94       1.0  T
   5    -27.0832693 -0.323270E-04  0.391E-02    3.94       1.0  T
   6    -27.0832793 -0.100812E-04  0.600E-03    3.94       4.2  T
   7    -27.0832795 -0.164328E-06  0.239E-03    3.94      10.5  T
   8    -27.0832795 -0.105543E-07  0.796E-04    3.94      31.4  T
   9    -27.0832795 -0.633818E-09  0.307E-04    3.94      81.3  T
     SCC iter.                  ...        0 min,  0.004 sec
     gradient                   ...        0 min,  0.002 sec
 * total energy  :   -26.5776184 Eh     change       -0.7474882E-01 Eh
   gradient norm :     0.2513364 Eh/α   predicted    -0.5942260E-01 ( -20.50%)
   displ. norm   :     0.3993886 α      lambda       -0.4824195E-01
   maximum displ.:     0.2942381 α      in ANC's #6, #5, #40, ...

........................................................................
.............................. CYCLE    5 ..............................
........................................................................
   1    -27.0544951 -0.270545E+02  0.547E-01    3.73       0.0  T
   2    -27.0545509 -0.558655E-04  0.523E-01    3.77       1.0  T
   3    -27.0561789 -0.162800E-02  0.242E-01    3.75       1.0  T
   4    -27.0561776  0.128732E-05  0.532E-02    3.75       1.0  T
   5    -27.0561926 -0.149832E-04  0.282E-02    3.75       1.0  T
   6    -27.0561994 -0.672978E-05  0.516E-03    3.75       4.8  T
   7    -27.0561995 -0.122024E-06  0.158E-03    3.75      15.9  T
   8    -27.0561995 -0.181627E-08  0.646E-04    3.75      38.7  T
   9    -27.0561995 -0.183880E-08  0.274E-04    3.75      91.3  T
     SCC iter.                  ...        0 min,  0.004 sec
     gradient                   ...        0 min,  0.002 sec
 * total energy  :   -26.6117776 Eh     change       -0.3415920E-01 Eh
   gradient norm :     0.1408630 Eh/α   predicted    -0.2796855E-01 ( -18.12%)
   displ. norm   :     0.3903423 α      lambda       -0.2041677E-01
   maximum displ.:     0.3051789 α      in ANC's #6, #5, #40, ...

........................................................................
.............................. CYCLE    6 ..............................
........................................................................
   1    -27.0395807 -0.270396E+02  0.440E-01    3.66       0.0  T
   2    -27.0395470  0.337751E-04  0.374E-01    3.69       1.0  T
   3    -27.0402190 -0.672003E-03  0.177E-01    3.68       1.0  T
   4    -27.0403199 -0.100924E-03  0.453E-02    3.68       1.0  T
   5    -27.0403304 -0.104630E-04  0.193E-02    3.68       1.3  T
   6    -27.0403335 -0.316680E-05  0.712E-03    3.68       3.5  T
   7    -27.0403338 -0.284884E-06  0.243E-03    3.68      10.3  T
   8    -27.0403338 -0.148365E-07  0.111E-03    3.68      22.5  T
   9    -27.0403338 -0.528760E-08  0.242E-04    3.68     103.1  T
  10    -27.0403338 -0.113580E-09  0.600E-05    3.68     416.5  T
     SCC iter.                  ...        0 min,  0.005 sec
     gradient                   ...        0 min,  0.002 sec
 * total energy  :   -26.6265292 Eh     change       -0.1475161E-01 Eh
   gradient norm :     0.0962616 Eh/α   predicted    -0.1176379E-01 ( -20.25%)
   displ. norm   :     0.3497652 α      lambda       -0.1034964E-01
   maximum displ.:     0.2559224 α      in ANC's #6, #5, #1, ...

........................................................................
.............................. CYCLE    7 ..............................
........................................................................
   1    -27.0341436 -0.270341E+02  0.381E-01    3.66       0.0  T
   2    -27.0341668 -0.232214E-04  0.276E-01    3.68       1.0  T
   3    -27.0342647 -0.978498E-04  0.157E-01    3.67       1.0  T
   4    -27.0344800 -0.215285E-03  0.474E-02    3.68       1.0  T
   5    -27.0344967 -0.167666E-04  0.137E-02    3.68       1.8  T
   6    -27.0344976 -0.876389E-06  0.685E-03    3.68       3.6  T
   7    -27.0344979 -0.330545E-06  0.262E-03    3.68       9.5  T
   8    -27.0344980 -0.289571E-07  0.143E-03    3.68      17.4  T
   9    -27.0344980 -0.481945E-08  0.196E-04    3.68     127.7  T
  10    -27.0344980 -0.566658E-10  0.408E-05    3.68     612.0  T
     SCC iter.                  ...        0 min,  0.005 sec
     gradient                   ...        0 min,  0.002 sec
 * total energy  :   -26.6339383 Eh     change       -0.7409066E-02 Eh
   gradient norm :     0.0681077 Eh/α   predicted    -0.5807881E-02 ( -21.61%)
   displ. norm   :     0.2843861 α      lambda       -0.5342425E-02
   maximum displ.:     0.1658010 α      in ANC's #6, #5, #1, ...

........................................................................
.............................. CYCLE    8 ..............................
........................................................................
   1    -27.0369521 -0.270370E+02  0.309E-01    3.70       0.0  T
   2    -27.0370034 -0.512097E-04  0.191E-01    3.71       1.0  T
   3    -27.0369202  0.831161E-04  0.124E-01    3.71       1.0  T
   4    -27.0370827 -0.162485E-03  0.432E-02    3.71       1.0  T
   5    -27.0371000 -0.172618E-04  0.104E-02    3.71       2.4  T
   6    -27.0371003 -0.301780E-06  0.452E-03    3.71       5.5  T
   7    -27.0371004 -0.105412E-06  0.183E-03    3.71      13.7  T
   8    -27.0371004  0.304539E-08  0.118E-03    3.71      21.3  T
   9    -27.0371004 -0.112948E-07  0.152E-04    3.71     164.5  T
  10    -27.0371004 -0.235438E-10  0.331E-05    3.71     754.7  T
     SCC iter.                  ...        0 min,  0.005 sec
     gradient                   ...        0 min,  0.002 sec
 * total energy  :   -26.6376476 Eh     change       -0.3709294E-02 Eh
   gradient norm :     0.0415717 Eh/α   predicted    -0.2887260E-02 ( -22.16%)
   displ. norm   :     0.2019962 α      lambda       -0.2325273E-02
   maximum displ.:     0.1434305 α      in ANC's #1, #5, #10, ...

........................................................................
.............................. CYCLE    9 ..............................
........................................................................
   1    -27.0442829 -0.270443E+02  0.212E-01    3.74       0.0  T
   2    -27.0443111 -0.282256E-04  0.116E-01    3.74       1.0  T
   3    -27.0442813  0.297776E-04  0.674E-02    3.75       1.0  T
   4    -27.0443168 -0.354495E-04  0.277E-02    3.74       1.0  T
   5    -27.0443247 -0.793805E-05  0.760E-03    3.74       3.3  T
   6    -27.0443250 -0.254177E-06  0.362E-03    3.74       6.9  T
   7    -27.0443251 -0.103932E-06  0.151E-03    3.74      16.6  T
   8    -27.0443251 -0.104987E-07  0.802E-04    3.74      31.2  T
   9    -27.0443251 -0.930132E-09  0.101E-04    3.74     246.5  T
     SCC iter.                  ...        0 min,  0.004 sec
     gradient                   ...        0 min,  0.001 sec
 * total energy  :   -26.6392036 Eh     change       -0.1556037E-02 Eh
   gradient norm :     0.0240211 Eh/α   predicted    -0.1210080E-02 ( -22.23%)
   displ. norm   :     0.1431163 α      lambda       -0.9099735E-03
   maximum displ.:     0.1222163 α      in ANC's #1, #10, #5, ...

........................................................................
.............................. CYCLE   10 ..............................
........................................................................
   1    -27.0508191 -0.270508E+02  0.132E-01    3.76       0.0  T
   2    -27.0508244 -0.528896E-05  0.728E-02    3.76       1.0  T
   3    -27.0508168  0.756711E-05  0.312E-02    3.76       1.0  T
   4    -27.0508264 -0.957939E-05  0.861E-03    3.76       2.9  T
   5    -27.0508268 -0.415743E-06  0.376E-03    3.76       6.7  T
   6    -27.0508269 -0.571251E-07  0.157E-03    3.76      15.9  T
   7    -27.0508269 -0.251378E-07  0.757E-04    3.76      33.0  T
   8    -27.0508269 -0.207262E-08  0.388E-04    3.76      64.5  T
     SCC iter.                  ...        0 min,  0.004 sec
     gradient                   ...        0 min,  0.002 sec
 * total energy  :   -26.6398398 Eh     change       -0.6361488E-03 Eh
   gradient norm :     0.0185120 Eh/α   predicted    -0.4643040E-03 ( -27.01%)
   displ. norm   :     0.1392692 α      lambda       -0.5311210E-03
   maximum displ.:     0.1204324 α      in ANC's #1, #6, #10, ...

........................................................................
.............................. CYCLE   11 ..............................
........................................................................
   1    -27.0548306 -0.270548E+02  0.116E-01    3.77       0.0  T
   2    -27.0548320 -0.134306E-05  0.678E-02    3.77       1.0  T
   3    -27.0548191  0.128465E-04  0.308E-02    3.77       1.0  T
   4    -27.0548338 -0.146442E-04  0.588E-03    3.77       4.2  T
   5    -27.0548338  0.125958E-07  0.432E-03    3.77       5.8  T
   6    -27.0548340 -0.234644E-06  0.747E-04    3.77      33.5  T
   7    -27.0548340 -0.154699E-08  0.467E-04    3.77      53.6  T
     SCC iter.                  ...        0 min,  0.003 sec
     gradient                   ...        0 min,  0.002 sec
 * total energy  :   -26.6402081 Eh     change       -0.3683062E-03 Eh
   gradient norm :     0.0142737 Eh/α   predicted    -0.2707097E-03 ( -26.50%)
   displ. norm   :     0.1154211 α      lambda       -0.2824695E-03
   maximum displ.:     0.0993024 α      in ANC's #1, #6, #5, ...

........................................................................
.............................. CYCLE   12 ..............................
........................................................................
   1    -27.0554048 -0.270554E+02  0.942E-02    3.76       0.0  T
   2    -27.0554064 -0.155635E-05  0.549E-02    3.76       1.0  T
   3    -27.0554047  0.168964E-05  0.134E-02    3.76       1.9  T
   4    -27.0554067 -0.206580E-05  0.395E-03    3.76       6.3  T
   5    -27.0554068 -0.758997E-07  0.190E-03    3.76      13.2  T
   6    -27.0554068 -0.253484E-07  0.851E-04    3.76      29.4  T
   7    -27.0554069 -0.697917E-08  0.397E-04    3.76      63.0  T
     SCC iter.                  ...        0 min,  0.003 sec
     gradient                   ...        0 min,  0.002 sec
 * total energy  :   -26.6404012 Eh     change       -0.1931224E-03 Eh
   gradient norm :     0.0086896 Eh/α   predicted    -0.1431164E-03 ( -25.89%)
   displ. norm   :     0.0769669 α      lambda       -0.1347318E-03
   maximum displ.:     0.0628825 α      in ANC's #1, #5, #3, ...

........................................................................
.............................. CYCLE   13 ..............................
........................................................................
   1    -27.0541269 -0.270541E+02  0.652E-02    3.74       0.0  T
   2    -27.0541279 -0.106241E-05  0.383E-02    3.74       1.0  T
   3    -27.0541232  0.466526E-05  0.180E-02    3.74       1.4  T
   4    -27.0541284 -0.510263E-05  0.506E-03    3.74       4.9  T
   5    -27.0541286 -0.270923E-06  0.192E-03    3.74      13.0  T
   6    -27.0541286 -0.142449E-07  0.674E-04    3.74      37.1  T
   7    -27.0541286 -0.288800E-08  0.293E-04    3.74      85.4  T
     SCC iter.                  ...        0 min,  0.003 sec
     gradient                   ...        0 min,  0.002 sec
 * total energy  :   -26.6404918 Eh     change       -0.9063695E-04 Eh
   gradient norm :     0.0045905 Eh/α   predicted    -0.6776436E-04 ( -25.24%)
   displ. norm   :     0.0460492 α      lambda       -0.6178793E-04
   maximum displ.:     0.0260031 α      in ANC's #5, #1, #3, ...

........................................................................
.............................. CYCLE   14 ..............................
........................................................................
   1    -27.0528170 -0.270528E+02  0.434E-02    3.72       0.0  T
   2    -27.0528173 -0.321082E-06  0.260E-02    3.72       1.0  T
   3    -27.0528133  0.403095E-05  0.171E-02    3.72       1.5  T
   4    -27.0528181 -0.477694E-05  0.321E-03    3.72       7.8  T
   5    -27.0528181 -0.559130E-07  0.152E-03    3.72      16.4  T
   6    -27.0528181 -0.148743E-07  0.521E-04    3.72      48.0  T
   7    -27.0528181 -0.244269E-08  0.140E-04    3.72     179.0  T
     SCC iter.                  ...        0 min,  0.003 sec
     gradient                   ...        0 min,  0.002 sec
 * total energy  :   -26.6405345 Eh     change       -0.4269479E-04 Eh
   gradient norm :     0.0039986 Eh/α   predicted    -0.3095940E-04 ( -27.49%)
   displ. norm   :     0.0405261 α      lambda       -0.3730213E-04
   maximum displ.:     0.0288453 α      in ANC's #3, #5, #10, ...

........................................................................
.............................. CYCLE   15 ..............................
........................................................................
   1    -27.0520583 -0.270521E+02  0.382E-02    3.70       0.0  T
   2    -27.0520584 -0.110982E-06  0.224E-02    3.70       1.1  T
   3    -27.0520559  0.247652E-05  0.131E-02    3.70       1.9  T
   4    -27.0520587 -0.280352E-05  0.222E-03    3.70      11.3  T
   5    -27.0520587 -0.169823E-07  0.121E-03    3.70      20.7  T
   6    -27.0520588 -0.140032E-07  0.279E-04    3.70      89.5  T
   7    -27.0520588 -0.531362E-09  0.976E-05    3.70     256.1  T
     SCC iter.                  ...        0 min,  0.003 sec
     gradient                   ...        0 min,  0.002 sec
 * total energy  :   -26.6405612 Eh     change       -0.2665055E-04 Eh
   gradient norm :     0.0044086 Eh/α   predicted    -0.1868160E-04 ( -29.90%)
   displ. norm   :     0.0470596 α      lambda       -0.3107441E-04
   maximum displ.:     0.0364080 α      in ANC's #3, #5, #13, ...

........................................................................
.............................. CYCLE   16 ..............................
........................................................................
   1    -27.0518399 -0.270518E+02  0.413E-02    3.69       0.0  T
   2    -27.0518400 -0.884709E-07  0.238E-02    3.69       1.1  T
   3    -27.0518396  0.465618E-06  0.605E-03    3.69       4.1  T
   4    -27.0518401 -0.501630E-06  0.187E-03    3.69      13.4  T
   5    -27.0518401 -0.181069E-07  0.870E-04    3.69      28.7  T
   6    -27.0518401 -0.834829E-08  0.302E-04    3.69      82.8  T
     SCC iter.                  ...        0 min,  0.003 sec
     gradient                   ...        0 min,  0.002 sec
 * total energy  :   -26.6405842 Eh     change       -0.2306183E-04 Eh
   gradient norm :     0.0044782 Eh/α   predicted    -0.1557220E-04 ( -32.48%)
   displ. norm   :     0.0648160 α      lambda       -0.3524218E-04
   maximum displ.:     0.0505090 α      in ANC's #3, #5, #13, ...

........................................................................
.............................. CYCLE   17 ..............................
........................................................................
   1    -27.0520807 -0.270521E+02  0.540E-02    3.67       0.0  T
   2    -27.0520809 -0.149433E-06  0.312E-02    3.67       1.0  T
   3    -27.0520806  0.227057E-06  0.470E-03    3.67       5.3  T
   4    -27.0520809 -0.226522E-06  0.234E-03    3.67      10.7  T
   5    -27.0520809 -0.467531E-07  0.107E-03    3.67      23.4  T
   6    -27.0520809 -0.938044E-08  0.341E-04    3.67      73.3  T
   7    -27.0520809 -0.886175E-09  0.169E-04    3.67     148.1  T
     SCC iter.                  ...        0 min,  0.003 sec
     gradient                   ...        0 min,  0.002 sec
 * total energy  :   -26.6406105 Eh     change       -0.2625754E-04 Eh
   gradient norm :     0.0044183 Eh/α   predicted    -0.1769470E-04 ( -32.61%)
   displ. norm   :     0.0870573 α      lambda       -0.4063032E-04
   maximum displ.:     0.0646391 α      in ANC's #3, #5, #6, ...

........................................................................
.............................. CYCLE   18 ..............................
........................................................................
   1    -27.0526384 -0.270526E+02  0.707E-02    3.65       0.0  T
   2    -27.0526387 -0.288078E-06  0.409E-02    3.65       1.0  T
   3    -27.0526371  0.160134E-05  0.107E-02    3.65       2.3  T
   4    -27.0526389 -0.176121E-05  0.311E-03    3.65       8.0  T
   5    -27.0526389 -0.270426E-07  0.177E-03    3.65      14.1  T
   6    -27.0526389 -0.343184E-07  0.438E-04    3.65      57.1  T
   7    -27.0526389 -0.155318E-08  0.184E-04    3.65     135.6  T
     SCC iter.                  ...        0 min,  0.003 sec
     gradient                   ...        0 min,  0.002 sec
 * total energy  :   -26.6406409 Eh     change       -0.3039534E-04 Eh
   gradient norm :     0.0048023 Eh/α   predicted    -0.2046901E-04 ( -32.66%)
   displ. norm   :     0.1138935 α      lambda       -0.4726829E-04
   maximum displ.:     0.0782695 α      in ANC's #3, #5, #1, ...

........................................................................
.............................. CYCLE   19 ..............................
........................................................................
   1    -27.0532066 -0.270532E+02  0.910E-02    3.63       0.0  T
   2    -27.0532071 -0.489199E-06  0.523E-02    3.63       1.0  T
   3    -27.0532051  0.200336E-05  0.127E-02    3.63       2.0  T
   4    -27.0532073 -0.225621E-05  0.398E-03    3.63       6.3  T
   5    -27.0532073 -0.153815E-07  0.212E-03    3.63      11.8  T
   6    -27.0532074 -0.626691E-07  0.523E-04    3.63      47.8  T
   7    -27.0532074 -0.236777E-08  0.211E-04    3.63     118.6  T
     SCC iter.                  ...        0 min,  0.003 sec
     gradient                   ...        0 min,  0.002 sec
 * total energy  :   -26.6406767 Eh     change       -0.3579507E-04 Eh
   gradient norm :     0.0058614 Eh/α   predicted    -0.2394088E-04 ( -33.12%)
   displ. norm   :     0.1549205 α      lambda       -0.6017159E-04
   maximum displ.:     0.0994794 α      in ANC's #3, #1, #5, ...

........................................................................
.............................. CYCLE   20 ..............................
........................................................................
   1    -27.0534271 -0.270534E+02  0.122E-01    3.60       0.0  T
   2    -27.0534279 -0.788220E-06  0.696E-02    3.60       1.0  T
   3    -27.0534267  0.122589E-05  0.124E-02    3.60       2.0  T
   4    -27.0534282 -0.145795E-05  0.516E-03    3.60       4.8  T
   5    -27.0534283 -0.120133E-06  0.911E-04    3.60      27.4  T
   6    -27.0534283 -0.670140E-08  0.433E-04    3.60      57.7  T
     SCC iter.                  ...        0 min,  0.003 sec
     gradient                   ...        0 min,  0.002 sec
 * total energy  :   -26.6407232 Eh     change       -0.4646044E-04 Eh
   gradient norm :     0.0074295 Eh/α   predicted    -0.3080684E-04 ( -33.69%)
   displ. norm   :     0.2257605 α      lambda       -0.9093885E-04
   maximum displ.:     0.1394998 α      in ANC's #3, #1, #5, ...
 * RMSD in coord.:     0.6912985 α      energy gain  -0.1450957E+01 Eh

generating ANC from model Hessian ...
Using Lindh-Hessian (1995)
 Shifting diagonal of input Hessian by   7.311209870598195E-003
 Lowest  eigenvalues of input Hessian
    0.000000    0.000000    0.000000    0.000000    0.000000    0.000000
    0.010000    0.011170    0.011764    0.025333    0.026617    0.028951
    0.033951    0.042672    0.051151    0.054306    0.094596    0.095103
 Highest eigenvalues
    1.635347    1.674505    1.828583    1.900788    1.906922    1.982360
 

........................................................................
.............................. CYCLE   21 ..............................
........................................................................
   1    -27.0529371 -0.270529E+02  0.175E-01    3.55       0.0  T
   2    -27.0529385 -0.149644E-05  0.996E-02    3.55       1.0  T
   3    -27.0529378  0.760589E-06  0.143E-02    3.55       1.7  T
   4    -27.0529383 -0.519614E-06  0.853E-03    3.55       2.9  T
   5    -27.0529390 -0.669565E-06  0.282E-03    3.55       8.9  T
   6    -27.0529391 -0.990532E-07  0.715E-04    3.55      35.0  T
   7    -27.0529391 -0.163867E-08  0.444E-04    3.55      56.3  T
     SCC iter.                  ...        0 min,  0.003 sec
     gradient                   ...        0 min,  0.002 sec
 * total energy  :   -26.6407934 Eh     change       -0.7025326E-04 Eh
   gradient norm :     0.0095260 Eh/α   predicted     0.0000000E+00 (-100.00%)
   displ. norm   :     0.1213526 α      lambda       -0.5870908E-03
   maximum displ.:     0.0789278 α      in ANC's #7, #1, #3, ...

........................................................................
.............................. CYCLE   22 ..............................
........................................................................
   1    -27.0533090 -0.270533E+02  0.934E-02    3.51       0.0  T
   2    -27.0533105 -0.151695E-05  0.472E-02    3.51       1.0  T
   3    -27.0533087  0.175287E-05  0.151E-02    3.51       1.7  T
   4    -27.0533108 -0.207586E-05  0.697E-03    3.51       3.6  T
   5    -27.0533110 -0.195988E-06  0.256E-03    3.51       9.7  T
   6    -27.0533111 -0.661231E-07  0.850E-04    3.51      29.4  T
   7    -27.0533111 -0.112999E-07  0.154E-04    3.51     162.2  T
     SCC iter.                  ...        0 min,  0.003 sec
     gradient                   ...        0 min,  0.002 sec
 * total energy  :   -26.6411364 Eh     change       -0.3429996E-03 Eh
   gradient norm :     0.0039468 Eh/α   predicted    -0.2978691E-03 ( -13.16%)
   displ. norm   :     0.1501058 α      lambda       -0.2155073E-03
   maximum displ.:     0.1188994 α      in ANC's #1, #3, #7, ...

........................................................................
.............................. CYCLE   23 ..............................
........................................................................
   1    -27.0533701 -0.270534E+02  0.113E-01    3.47       0.0  T
   2    -27.0533712 -0.111408E-05  0.633E-02    3.47       1.0  T
   3    -27.0533696  0.162050E-05  0.139E-02    3.47       1.8  T
   4    -27.0533714 -0.182548E-05  0.627E-03    3.47       4.0  T
   5    -27.0533716 -0.180638E-06  0.228E-03    3.47      11.0  T
   6    -27.0533716 -0.522893E-07  0.905E-04    3.47      27.6  T
   7    -27.0533716 -0.112782E-07  0.276E-04    3.47      90.7  T
     SCC iter.                  ...        0 min,  0.003 sec
     gradient                   ...        0 min,  0.002 sec
 * total energy  :   -26.6413161 Eh     change       -0.1796869E-03 Eh
   gradient norm :     0.0024420 Eh/α   predicted    -0.1101806E-03 ( -38.68%)
   displ. norm   :     0.2369212 α      lambda       -0.2717664E-03
   maximum displ.:     0.1733283 α      in ANC's #1, #3, #5, ...

........................................................................
.............................. CYCLE   24 ..............................
........................................................................
   1    -27.0528387 -0.270528E+02  0.176E-01    3.41       0.0  T
   2    -27.0528406 -0.197207E-05  0.993E-02    3.41       1.0  T
   3    -27.0528374  0.318281E-05  0.197E-02    3.41       1.3  T
   4    -27.0528410 -0.351098E-05  0.917E-03    3.41       2.7  T
   5    -27.0528413 -0.390535E-06  0.326E-03    3.41       7.7  T
   6    -27.0528415 -0.132911E-06  0.111E-03    3.41      22.5  T
   7    -27.0528415 -0.139130E-07  0.440E-04    3.41      56.8  T
   8    -27.0528415 -0.170175E-11  0.151E-04    3.41     165.9  T
     SCC iter.                  ...        0 min,  0.004 sec
     gradient                   ...        0 min,  0.002 sec
 * total energy  :   -26.6415711 Eh     change       -0.2550406E-03 Eh
   gradient norm :     0.0056185 Eh/α   predicted    -0.1435069E-03 ( -43.73%)
   displ. norm   :     0.3776500 α      lambda       -0.4436538E-03
   maximum displ.:     0.2653178 α      in ANC's #1, #3, #5, ...

........................................................................
.............................. CYCLE   25 ..............................
........................................................................
   1    -27.0505737 -0.270506E+02  0.280E-01    3.30       0.0  T
   2    -27.0505779 -0.423121E-05  0.158E-01    3.30       1.0  T
   3    -27.0505720  0.591599E-05  0.284E-02    3.30       1.0  T
   4    -27.0505787 -0.666167E-05  0.137E-02    3.30       1.8  T
   5    -27.0505795 -0.881883E-06  0.422E-03    3.30       5.9  T
   6    -27.0505798 -0.242145E-06  0.143E-03    3.30      17.5  T
   7    -27.0505798 -0.165790E-07  0.671E-04    3.30      37.3  T
   8    -27.0505798 -0.313619E-09  0.170E-04    3.30     147.1  T
     SCC iter.                  ...        0 min,  0.004 sec
     gradient                   ...        0 min,  0.002 sec
 * total energy  :   -26.6419891 Eh     change       -0.4179698E-03 Eh
   gradient norm :     0.0115991 Eh/α   predicted    -0.2534722E-03 ( -39.36%)
   displ. norm   :     0.5719058 α      lambda       -0.7054959E-03
   maximum displ.:     0.4055392 α      in ANC's #1, #3, #5, ...

........................................................................
.............................. CYCLE   26 ..............................
........................................................................
   1    -27.0444329 -0.270444E+02  0.421E-01    3.12       0.0  T
   2    -27.0444418 -0.888165E-05  0.239E-01    3.12       1.0  T
   3    -27.0444295  0.122840E-04  0.412E-02    3.12       1.0  T
   4    -27.0444440 -0.144796E-04  0.189E-02    3.12       1.3  T
   5    -27.0444458 -0.175346E-05  0.393E-03    3.12       6.4  T
   6    -27.0444459 -0.157409E-06  0.193E-03    3.12      13.0  T
   7    -27.0444459 -0.197958E-07  0.920E-04    3.12      27.2  T
   8    -27.0444459 -0.322547E-08  0.171E-04    3.12     146.3  T
     SCC iter.                  ...        0 min,  0.004 sec
     gradient                   ...        0 min,  0.002 sec
 * total energy  :   -26.6425164 Eh     change       -0.5272534E-03 Eh
   gradient norm :     0.0221058 Eh/α   predicted    -0.4681096E-03 ( -11.22%)
   displ. norm   :     0.3815170 α      lambda       -0.5913001E-03
   maximum displ.:     0.2707620 α      in ANC's #1, #3, #5, ...

........................................................................
.............................. CYCLE   27 ..............................
........................................................................
   1    -27.0429544 -0.270430E+02  0.279E-01    3.03       0.0  T
   2    -27.0429576 -0.314565E-05  0.160E-01    3.03       1.0  T
   3    -27.0429567  0.915615E-06  0.195E-02    3.03       1.3  T
   4    -27.0429570 -0.324505E-06  0.132E-02    3.03       1.9  T
   5    -27.0429586 -0.159414E-05  0.304E-03    3.03       8.2  T
   6    -27.0429587 -0.141754E-06  0.118E-03    3.03      21.2  T
   7    -27.0429587 -0.317109E-08  0.647E-04    3.03      38.6  T
   8    -27.0429587 -0.208403E-08  0.983E-05    3.03     254.3  T
     SCC iter.                  ...        0 min,  0.004 sec
     gradient                   ...        0 min,  0.002 sec
 * total energy  :   -26.6429958 Eh     change       -0.4794372E-03 Eh
   gradient norm :     0.0249856 Eh/α   predicted    -0.3386824E-03 ( -29.36%)
   displ. norm   :     0.3922828 α      lambda       -0.1550583E-02
   maximum displ.:     0.2673877 α      in ANC's #1, #3, #26, ...

........................................................................
.............................. CYCLE   28 ..............................
........................................................................
   1    -27.0534396 -0.270534E+02  0.302E-01    3.00       0.0  T
   2    -27.0534489 -0.926982E-05  0.174E-01    3.00       1.0  T
   3    -27.0534172  0.316228E-04  0.528E-02    3.00       1.0  T
   4    -27.0534535 -0.363018E-04  0.143E-02    3.00       1.7  T
   5    -27.0534538 -0.219109E-06  0.864E-03    3.00       2.9  T
   6    -27.0534548 -0.106616E-05  0.222E-03    3.00      11.3  T
   7    -27.0534549 -0.459870E-07  0.983E-04    3.00      25.4  T
   8    -27.0534549 -0.747701E-09  0.137E-04    3.00     182.6  T
     SCC iter.                  ...        0 min,  0.005 sec
     gradient                   ...        0 min,  0.002 sec
 * total energy  :   -26.6440497 Eh     change       -0.1053932E-02 Eh
   gradient norm :     0.0163551 Eh/α   predicted    -0.8946050E-03 ( -15.12%)
   displ. norm   :     0.6538311 α      lambda       -0.1478506E-02
   maximum displ.:     0.4591673 α      in ANC's #3, #1, #7, ...

........................................................................
.............................. CYCLE   29 ..............................
........................................................................
   1    -27.0491022 -0.270491E+02  0.467E-01    2.84       0.0  T
   2    -27.0491139 -0.117323E-04  0.264E-01    2.84       1.0  T
   3    -27.0491061  0.785370E-05  0.413E-02    2.84       1.0  T
   4    -27.0491132 -0.712708E-05  0.247E-02    2.84       1.0  T
   5    -27.0491178 -0.464455E-05  0.586E-03    2.84       4.3  T
   6    -27.0491184 -0.542747E-06  0.165E-03    2.84      15.1  T
   7    -27.0491184 -0.353065E-08  0.635E-04    2.84      39.4  T
   8    -27.0491184 -0.341043E-09  0.109E-04    2.84     229.7  T
     SCC iter.                  ...        0 min,  0.004 sec
     gradient                   ...        0 min,  0.002 sec
 * total energy  :   -26.6451522 Eh     change       -0.1102506E-02 Eh
   gradient norm :     0.0214275 Eh/α   predicted    -0.1055282E-02 (  -4.28%)
   displ. norm   :     0.3851615 α      lambda       -0.1351009E-02
   maximum displ.:     0.2534858 α      in ANC's #3, #1, #7, ...

........................................................................
.............................. CYCLE   30 ..............................
........................................................................
   1    -27.0565356 -0.270565E+02  0.272E-01    2.84       0.0  T
   2    -27.0565419 -0.632097E-05  0.152E-01    2.84       1.0  T
   3    -27.0565196  0.223276E-04  0.453E-02    2.84       1.0  T
   4    -27.0565457 -0.261355E-04  0.148E-02    2.84       1.7  T
   5    -27.0565456  0.975024E-07  0.779E-03    2.84       3.2  T
   6    -27.0565465 -0.901769E-06  0.928E-04    2.84      26.9  T
   7    -27.0565465 -0.800711E-10  0.445E-04    2.84      56.2  T
     SCC iter.                  ...        0 min,  0.003 sec
     gradient                   ...        0 min,  0.002 sec
 * total energy  :   -26.6459895 Eh     change       -0.8372277E-03 Eh
   gradient norm :     0.0162414 Eh/α   predicted    -0.7757196E-03 (  -7.35%)
   displ. norm   :     0.5189781 α      lambda       -0.1028884E-02
   maximum displ.:     0.3604906 α      in ANC's #1, #3, #26, ...

........................................................................
.............................. CYCLE   31 ..............................
........................................................................
   1    -27.0494240 -0.270494E+02  0.362E-01    2.77       0.0  T
   2    -27.0494335 -0.948057E-05  0.207E-01    2.76       1.0  T
   3    -27.0494262  0.730712E-05  0.335E-02    2.76       1.0  T
   4    -27.0494348 -0.863467E-05  0.168E-02    2.76       1.5  T
   5    -27.0494366 -0.181072E-05  0.399E-03    2.76       6.3  T
   6    -27.0494367 -0.651029E-07  0.158E-03    2.76      15.8  T
   7    -27.0494367 -0.978131E-08  0.996E-04    2.76      25.1  T
   8    -27.0494367 -0.120974E-08  0.448E-04    2.76      55.8  T
     SCC iter.                  ...        0 min,  0.004 sec
     gradient                   ...        0 min,  0.001 sec
 * total energy  :   -26.6466648 Eh     change       -0.6752863E-03 Eh
   gradient norm :     0.0170722 Eh/α   predicted    -0.6530073E-03 (  -3.30%)
   displ. norm   :     0.2559116 α      lambda       -0.1585443E-02
   maximum displ.:     0.1487506 α      in ANC's #1, #26, #3, ...

........................................................................
.............................. CYCLE   32 ..............................
........................................................................
   1    -27.0634150 -0.270634E+02  0.248E-01    2.87       0.0  T
   2    -27.0634461 -0.310916E-04  0.152E-01    2.87       1.0  T
   3    -27.0633989  0.472545E-04  0.806E-02    2.87       1.0  T
   4    -27.0634738 -0.748976E-04  0.146E-02    2.87       1.7  T
   5    -27.0634740 -0.255760E-06  0.792E-03    2.87       3.2  T
   6    -27.0634746 -0.596282E-06  0.341E-03    2.87       7.3  T
   7    -27.0634747 -0.113213E-06  0.117E-03    2.87      21.3  T
   8    -27.0634747 -0.252725E-08  0.660E-04    2.87      37.9  T
   9    -27.0634747 -0.492648E-09  0.982E-05    2.87     254.6  T
     SCC iter.                  ...        0 min,  0.004 sec
     gradient                   ...        0 min,  0.002 sec
 * total energy  :   -26.6467726 Eh     change       -0.1078648E-03 Eh
   gradient norm :     0.0300448 Eh/α   predicted    -0.8446365E-03 ( 683.05%)
   displ. norm   :     0.3234477 α      lambda       -0.1434394E-02
   maximum displ.:     0.2477231 α      in ANC's #3, #1, #7, ...

........................................................................
.............................. CYCLE   33 ..............................
........................................................................
   1    -27.0544989 -0.270545E+02  0.258E-01    2.75       0.0  T
   2    -27.0545111 -0.122243E-04  0.148E-01    2.75       1.0  T
   3    -27.0544657  0.454810E-04  0.660E-02    2.75       1.0  T
   4    -27.0545221 -0.564023E-04  0.131E-02    2.75       1.9  T
   5    -27.0545219  0.187455E-06  0.670E-03    2.75       3.7  T
   6    -27.0545224 -0.481034E-06  0.197E-03    2.75      12.7  T
   7    -27.0545224 -0.348375E-07  0.960E-04    2.75      26.1  T
   8    -27.0545224 -0.881442E-09  0.449E-04    2.75      55.7  T
     SCC iter.                  ...        0 min,  0.004 sec
     gradient                   ...        0 min,  0.002 sec
 * total energy  :   -26.6476347 Eh     change       -0.8620401E-03 Eh
   gradient norm :     0.0122430 Eh/α   predicted    -0.7922365E-03 (  -8.10%)
   displ. norm   :     0.2720864 α      lambda       -0.3671616E-03
   maximum displ.:     0.1725521 α      in ANC's #1, #3, #26, ...

........................................................................
.............................. CYCLE   34 ..............................
........................................................................
   1    -27.0532545 -0.270533E+02  0.185E-01    2.70       0.0  T
   2    -27.0532577 -0.321234E-05  0.105E-01    2.70       1.0  T
   3    -27.0532480  0.969477E-05  0.302E-02    2.70       1.0  T
   4    -27.0532593 -0.112934E-04  0.979E-03    2.70       2.6  T
   5    -27.0532594 -0.102769E-06  0.476E-03    2.70       5.3  T
   6    -27.0532597 -0.279471E-06  0.872E-04    2.70      28.7  T
   7    -27.0532597 -0.732850E-08  0.437E-04    2.70      57.2  T
     SCC iter.                  ...        0 min,  0.003 sec
     gradient                   ...        0 min,  0.002 sec
 * total energy  :   -26.6478899 Eh     change       -0.2552740E-03 Eh
   gradient norm :     0.0122122 Eh/α   predicted    -0.1971744E-03 ( -22.76%)
   displ. norm   :     0.2526736 α      lambda       -0.5452296E-03
   maximum displ.:     0.1405867 α      in ANC's #3, #1, #26, ...

........................................................................
.............................. CYCLE   35 ..............................
........................................................................
   1    -27.0582993 -0.270583E+02  0.186E-01    2.68       0.0  T
   2    -27.0583055 -0.616775E-05  0.105E-01    2.68       1.0  T
   3    -27.0582943  0.112149E-04  0.344E-02    2.68       1.0  T
   4    -27.0583067 -0.124533E-04  0.110E-02    2.68       2.3  T
   5    -27.0583076 -0.906264E-06  0.439E-03    2.68       5.7  T
   6    -27.0583077 -0.104947E-06  0.197E-03    2.68      12.7  T
   7    -27.0583078 -0.536116E-07  0.423E-04    2.68      59.2  T
   8    -27.0583078  0.401172E-10  0.105E-04    2.68     237.0  T
     SCC iter.                  ...        0 min,  0.004 sec
     gradient                   ...        0 min,  0.002 sec
 * total energy  :   -26.6481469 Eh     change       -0.2569845E-03 Eh
   gradient norm :     0.0127638 Eh/α   predicted    -0.2900186E-03 (  12.85%)
   displ. norm   :     0.2662067 α      lambda       -0.4988018E-03
   maximum displ.:     0.1743172 α      in ANC's #1, #3, #26, ...

........................................................................
.............................. CYCLE   36 ..............................
........................................................................
   1    -27.0590670 -0.270591E+02  0.199E-01    2.64       0.0  T
   2    -27.0590701 -0.308074E-05  0.113E-01    2.64       1.0  T
   3    -27.0590668  0.334375E-05  0.214E-02    2.64       1.2  T
   4    -27.0590700 -0.325927E-05  0.112E-02    2.64       2.2  T
   5    -27.0590711 -0.105442E-05  0.340E-03    2.64       7.4  T
   6    -27.0590712 -0.612892E-07  0.136E-03    2.64      18.3  T
   7    -27.0590712 -0.121700E-07  0.790E-04    2.64      31.6  T
   8    -27.0590712 -0.116464E-08  0.115E-04    2.64     217.7  T
     SCC iter.                  ...        0 min,  0.004 sec
     gradient                   ...        0 min,  0.002 sec
 * total energy  :   -26.6484005 Eh     change       -0.2535561E-03 Eh
   gradient norm :     0.0128263 Eh/α   predicted    -0.2670712E-03 (   5.33%)
   displ. norm   :     0.3016824 α      lambda       -0.3298197E-03
   maximum displ.:     0.2087821 α      in ANC's #1, #3, #26, ...

........................................................................
.............................. CYCLE   37 ..............................
........................................................................
   1    -27.0540518 -0.270541E+02  0.208E-01    2.63       0.0  T
   2    -27.0540539 -0.213277E-05  0.120E-01    2.62       1.0  T
   3    -27.0540459  0.802626E-05  0.261E-02    2.62       1.0  T
   4    -27.0540549 -0.903066E-05  0.873E-03    2.62       2.9  T
   5    -27.0540552 -0.314828E-06  0.290E-03    2.62       8.6  T
   6    -27.0540553 -0.705007E-07  0.775E-04    2.62      32.3  T
   7    -27.0540553  0.756238E-09  0.440E-04    2.62      56.8  T
     SCC iter.                  ...        0 min,  0.003 sec
     gradient                   ...        0 min,  0.002 sec
 * total energy  :   -26.6485357 Eh     change       -0.1352079E-03 Eh
   gradient norm :     0.0122803 Eh/α   predicted    -0.1799219E-03 (  33.07%)
   displ. norm   :     0.0449635 α      lambda       -0.2965809E-03
   maximum displ.:     0.0250890 α      in ANC's #3, #26, #21, ...

........................................................................
.............................. CYCLE   38 ..............................
........................................................................
   1    -27.0616894 -0.270617E+02  0.726E-02    2.68       0.0  T
   2    -27.0616918 -0.236860E-05  0.418E-02    2.68       1.0  T
   3    -27.0616881  0.362897E-05  0.223E-02    2.69       1.1  T
   4    -27.0616938 -0.569165E-05  0.511E-03    2.69       4.9  T
   5    -27.0616938 -0.512239E-08  0.292E-03    2.69       8.6  T
   6    -27.0616939 -0.845936E-07  0.782E-04    2.69      32.0  T
   7    -27.0616939 -0.645782E-08  0.290E-04    2.69      86.3  T
     SCC iter.                  ...        0 min,  0.003 sec
     gradient                   ...        0 min,  0.002 sec
 * total energy  :   -26.6486334 Eh     change       -0.9776051E-04 Eh
   gradient norm :     0.0087190 Eh/α   predicted    -0.1485907E-03 (  51.99%)
   displ. norm   :     0.2555130 α      lambda       -0.2496061E-03
   maximum displ.:     0.1623823 α      in ANC's #3, #1, #26, ...

........................................................................
.............................. CYCLE   39 ..............................
........................................................................
   1    -27.0593640 -0.270594E+02  0.182E-01    2.67       0.0  T
   2    -27.0593660 -0.203744E-05  0.104E-01    2.66       1.0  T
   3    -27.0593635  0.253242E-05  0.183E-02    2.66       1.4  T
   4    -27.0593664 -0.292534E-05  0.829E-03    2.66       3.0  T
   5    -27.0593667 -0.349491E-06  0.326E-03    2.66       7.7  T
   6    -27.0593669 -0.118810E-06  0.705E-04    2.66      35.4  T
   7    -27.0593669 -0.202393E-08  0.425E-04    2.66      58.8  T
     SCC iter.                  ...        0 min,  0.003 sec
     gradient                   ...        0 min,  0.002 sec
 * total energy  :   -26.6487638 Eh     change       -0.1303841E-03 Eh
   gradient norm :     0.0055048 Eh/α   predicted    -0.1329529E-03 (   1.97%)
   displ. norm   :     0.2188068 α      lambda       -0.1278662E-03
   maximum displ.:     0.1423785 α      in ANC's #1, #3, #26, ...

........................................................................
.............................. CYCLE   40 ..............................
........................................................................
   1    -27.0587590 -0.270588E+02  0.151E-01    2.65       0.0  T
   2    -27.0587628 -0.384779E-05  0.855E-02    2.65       1.0  T
   3    -27.0587585  0.435360E-05  0.215E-02    2.65       1.2  T
   4    -27.0587637 -0.519746E-05  0.834E-03    2.65       3.0  T
   5    -27.0587641 -0.395469E-06  0.227E-03    2.65      11.0  T
   6    -27.0587641 -0.128900E-07  0.752E-04    2.65      33.3  T
   7    -27.0587641 -0.683445E-08  0.365E-04    2.65      68.5  T
     SCC iter.                  ...        0 min,  0.003 sec
     gradient                   ...        0 min,  0.002 sec
 * total energy  :   -26.6488029 Eh     change       -0.3908459E-04 Eh
   gradient norm :     0.0067970 Eh/α   predicted    -0.6699213E-04 (  71.40%)
   displ. norm   :     0.0375405 α      lambda       -0.6986856E-04
   maximum displ.:     0.0200177 α      in ANC's #1, #26, #3, ...

........................................................................
.............................. CYCLE   41 ..............................
........................................................................
   1    -27.0598828 -0.270599E+02  0.369E-02    2.66       0.0  T
   2    -27.0598836 -0.835710E-06  0.229E-02    2.66       1.1  T
   3    -27.0598827  0.972299E-06  0.113E-02    2.66       2.2  T
   4    -27.0598841 -0.144027E-05  0.232E-03    2.66      10.8  T
   5    -27.0598842 -0.468575E-07  0.940E-04    2.66      26.6  T
   6    -27.0598842 -0.799673E-08  0.456E-04    2.66      54.8  T
     SCC iter.                  ...        0 min,  0.003 sec
     gradient                   ...        0 min,  0.002 sec
 * total energy  :   -26.6488479 Eh     change       -0.4500212E-04 Eh
   gradient norm :     0.0036745 Eh/α   predicted    -0.3498401E-04 ( -22.26%)
   displ. norm   :     0.0986663 α      lambda       -0.4161015E-04
   maximum displ.:     0.0561341 α      in ANC's #1, #3, #26, ...

........................................................................
.............................. CYCLE   42 ..............................
........................................................................
   1    -27.0610073 -0.270610E+02  0.720E-02    2.66       0.0  T
   2    -27.0610082 -0.915377E-06  0.408E-02    2.67       1.0  T
   3    -27.0610068  0.139416E-05  0.120E-02    2.66       2.1  T
   4    -27.0610084 -0.154924E-05  0.427E-03    2.66       5.9  T
   5    -27.0610085 -0.129444E-06  0.189E-03    2.67      13.2  T
   6    -27.0610085 -0.278911E-07  0.540E-04    2.66      46.3  T
   7    -27.0610085 -0.252946E-08  0.211E-04    2.66     118.5  T
     SCC iter.                  ...        0 min,  0.003 sec
     gradient                   ...        0 min,  0.002 sec
 * total energy  :   -26.6488561 Eh     change       -0.8226469E-05 Eh
   gradient norm :     0.0043985 Eh/α   predicted    -0.2100596E-04 ( 155.35%)
   displ. norm   :     0.1109766 α      lambda       -0.4396110E-04
   maximum displ.:     0.0651836 α      in ANC's #1, #3, #26, ...
 * RMSD in coord.:     1.4802307 α      energy gain  -0.8132977E-02 Eh

generating ANC from model Hessian ...
Using Lindh-Hessian (1995)
 Shifting diagonal of input Hessian by   7.642487788505990E-003
 Lowest  eigenvalues of input Hessian
    0.000000    0.000000    0.000000    0.000000    0.000000    0.000000
    0.010000    0.011997    0.014639    0.020402    0.026587    0.027594
    0.043401    0.048978    0.049947    0.061928    0.066268    0.092543
 Highest eigenvalues
    1.660650    1.719185    1.827419    1.895768    1.921115    2.008606
 

........................................................................
.............................. CYCLE   43 ..............................
........................................................................
   1    -27.0612677 -0.270613E+02  0.801E-02    2.67       0.0  T
   2    -27.0612682 -0.490971E-06  0.462E-02    2.67       1.0  T
   3    -27.0612668  0.138414E-05  0.109E-02    2.67       2.3  T
   4    -27.0612683 -0.157412E-05  0.389E-03    2.67       6.4  T
   5    -27.0612684 -0.484456E-07  0.164E-03    2.67      15.3  T
   6    -27.0612684 -0.265913E-07  0.394E-04    2.67      63.5  T
   7    -27.0612684 -0.107309E-08  0.232E-04    2.67     107.9  T
     SCC iter.                  ...        0 min,  0.003 sec
     gradient                   ...        0 min,  0.002 sec
 * total energy  :   -26.6488644 Eh     change       -0.8285302E-05 Eh
   gradient norm :     0.0036435 Eh/α   predicted     0.0000000E+00 (-100.00%)
   displ. norm   :     0.0149715 α      lambda       -0.2168119E-04
   maximum displ.:     0.0076984 α      in ANC's #9, #1, #8, ...

........................................................................
.............................. CYCLE   44 ..............................
........................................................................
   1    -27.0611580 -0.270612E+02  0.151E-02    2.67       0.0  T
   2    -27.0611581 -0.489031E-07  0.892E-03    2.67       2.8  T
   3    -27.0611579  0.117704E-06  0.325E-03    2.67       7.7  T
   4    -27.0611581 -0.137056E-06  0.108E-03    2.67      23.0  T
   5    -27.0611581 -0.429010E-08  0.477E-04    2.67      52.4  T
   6    -27.0611581 -0.139804E-08  0.132E-04    2.67     189.9  T
     SCC iter.                  ...        0 min,  0.003 sec
     gradient                   ...        0 min,  0.002 sec
 * total energy  :   -26.6488767 Eh     change       -0.1223625E-04 Eh
   gradient norm :     0.0010685 Eh/α   predicted    -0.1084294E-04 ( -11.39%)
   displ. norm   :     0.0136873 α      lambda       -0.2982837E-05
   maximum displ.:     0.0088521 α      in ANC's #1, #2, #6, ...

........................................................................
.............................. CYCLE   45 ..............................
........................................................................
   1    -27.0611153 -0.270611E+02  0.114E-02    2.66       0.0  T
   2    -27.0611153 -0.244152E-07  0.662E-03    2.66       3.8  T
   3    -27.0611153  0.499566E-07  0.215E-03    2.66      11.6  T
   4    -27.0611153 -0.588123E-07  0.638E-04    2.66      39.2  T
   5    -27.0611153 -0.136670E-08  0.291E-04    2.66      86.0  T
     SCC iter.                  ...        0 min,  0.003 sec
     gradient                   ...        0 min,  0.002 sec
 * total energy  :   -26.6488782 Eh     change       -0.1558357E-05 Eh
   gradient norm :     0.0007321 Eh/α   predicted    -0.1491419E-05 (  -4.30%)
   displ. norm   :     0.0058502 α      lambda       -0.6980914E-06
   maximum displ.:     0.0040927 α      in ANC's #1, #2, #9, ...

   *** GEOMETRY OPTIMIZATION CONVERGED AFTER 45 ITERATIONS ***

------------------------------------------------------------------------
 total energy gain   :        -1.4591124 Eh     -915.6068 kcal/mol
 total RMSD          :         1.7591691 a0        0.9309 Å
 total power (kW/mol):       -85.1310880 (step)********** (real)
------------------------------------------------------------------------

 ANCopt (total)                0 d,  0 h,  0 min,  0.293 sec
 optimizer setup                ...        0 min,  0.000 sec (  0.025%)
 model hessian                  ...        0 min,  0.004 sec (  1.332%)
 ANC generation                 ...        0 min,  0.001 sec (  0.227%)
 coordinate transformation      ...        0 min,  0.000 sec (  0.061%)
 single point calculation       ...        0 min,  0.280 sec ( 95.335%)
 optimization log               ...        0 min,  0.003 sec (  0.989%)
 hessian update                 ...        0 min,  0.001 sec (  0.198%)
 rational function              ...        0 min,  0.004 sec (  1.429%)

================
 final structure:
================
16
 xtb: 6.5.0 (746241f)
C            0.92264775264559        4.74436884907819        0.09413895455286
C           -0.28659611371305        5.21190389853168       -0.31014246291404
S           -1.43281290797700        3.94931548629711       -0.52691059401613
C           -0.25483801431252        2.75355303006815       -0.06192520875766
C           -0.59374878415365        1.36614517929339       -0.03049579058934
C           -1.79233934826392        0.77549158762432       -0.33336669375105
C           -1.76903410169727       -0.62525342635341       -0.19559888479357
C           -0.55963945246522       -1.09287918097867        0.20937445680826
S            0.58422940531048        0.17045394177700        0.43465010881514
C            0.94468780310271        3.34408402683604        0.23695901434680
H            1.77179450504657        5.37630206278391        0.28394712133870
H           -0.58370855373131        6.22450732182885       -0.49673113651768
H           -2.65512958947889        1.33710045485721       -0.64359567622439
H           -2.61667612736203       -1.25724877301489       -0.39067161078186
H           -0.26179079195167       -2.10587035609468        0.39342716269486
H            1.80785431900106        2.78222589746587        0.54854123978893
 
 Bond Distances (Angstroems)
 ---------------------------
C1-C2=1.3581         C1-C10=1.4077        C1-H11=1.0754        C2-C1=1.3581         C2-S3=1.7190         C2-H12=1.0717        
S3-C2=1.7190         S3-C4=1.7417         C4-S3=1.7417         C4-C5=1.4285         C4-C10=1.3700        C5-C4=1.4285         
C5-C6=1.3701         C5-S9=1.7417         C6-C5=1.3701         C6-C7=1.4077         C6-H13=1.0752        C7-C6=1.4077         
C7-C8=1.3584         C7-H14=1.0752        C8-C7=1.3584         C8-S9=1.7191         C8-H15=1.0718        S9-C5=1.7417         
S9-C8=1.7191         C10-C1=1.4077        C10-C4=1.3700        C10-H16=1.0760       H11-C1=1.0754        H12-C2=1.0717        
H13-C6=1.0752        H14-C7=1.0752        H15-C8=1.0718        H16-C10=1.0760       
 C  H  Rav=1.0742 sigma=0.0018  Rmin=1.0717  Rmax=1.0760     6
 C  C  Rav=1.3858 sigma=0.0262  Rmin=1.3581  Rmax=1.4285     7
 S  C  Rav=1.7304 sigma=0.0114  Rmin=1.7190  Rmax=1.7417     4
 
 selected bond angles (degree)
 --------------------
C10-C1-C2=112.74               H11-C1-C2=123.60               H11-C1-C10=123.66              S3-C2-C1=112.24                
H12-C2-C1=128.61               H12-C2-S3=119.16               C4-S3-C2= 91.12                C5-C4-S3=120.81                
C10-C4-S3=110.76               C10-C4-C5=128.43               C6-C5-C4=128.42                S9-C5-C4=120.81                
S9-C5-C6=110.78                C7-C6-C5=113.13                H13-C6-C5=122.72               H13-C6-C7=124.14               
C8-C7-C6=112.73                H14-C7-C6=123.65               H14-C7-C8=123.62               S9-C8-C7=112.24                
H15-C8-C7=128.61               H15-C8-S9=119.15               C8-S9-C5= 91.12                C4-C10-C1=113.14               
H16-C10-C1=124.15              H16-C10-C4=122.71              
 
 selected dihedral angles (degree)
 ---------------------------------
S3-C2-C1-C10=  0.00           S3-C2-C1-H11=179.98           H12-C2-C1-C10=179.99          H12-C2-C1-H11=359.95          
C4-S3-C2-C1=359.97            C4-S3-C2-H12=179.99           C5-C4-S3-C2=180.13            C10-C4-S3-C2=  0.04           
C6-C5-C4-S3=  0.11            C6-C5-C4-C10=180.22           S9-C5-C4-S3=180.01            S9-C5-C4-C10=  0.11           
C7-C6-C5-C4=179.85            C7-C6-C5-S9=359.95            H13-C6-C5-C4=359.85           H13-C6-C5-S9=179.95           
C8-C7-C6-C5=  0.00            C8-C7-C6-H13=180.00           H14-C7-C6-C5=180.05           H14-C7-C6-H13=  0.05          
S9-C8-C7-C6=  0.05            S9-C8-C7-H14=180.00           H15-C8-C7-C6=179.97           H15-C8-C7-H14=359.92          
C8-S9-C5-C4=180.16            C8-S9-C5-C6=  0.07            C5-S9-C8-C7=359.93            C5-S9-C8-H15=180.00           
C4-C10-C1-C2=  0.00           C4-C10-C1-H11=180.06          H16-C10-C1-C2=180.05          H16-C10-C1-H11=  0.09         
C1-C10-C4-S3=359.96           C1-C10-C4-C5=179.86           H16-C10-C4-S3=179.93          H16-C10-C4-C5=359.83          
           -------------------------------------------------
          |                Final Singlepoint                |
           -------------------------------------------------

          ...................................................
          :                      SETUP                      :
          :.................................................:
          :  # basis functions                  58          :
          :  # atomic orbitals                  56          :
          :  # shells                           28          :
          :  # electrons                        50          :
          :  max. iterations                   250          :
          :  Hamiltonian                  GFN2-xTB          :
          :  restarted?                      false          :
          :  GBSA solvation                  false          :
          :  PC potential                    false          :
          :  electronic temp.          300.0000000     K    :
          :  accuracy                    1.0000000          :
          :  -> integral cutoff          0.2500000E+02      :
          :  -> integral neglect         0.1000000E-07      :
          :  -> SCF convergence          0.1000000E-05 Eh   :
          :  -> wf. convergence          0.1000000E-03 e    :
          :  Broyden damping             0.4000000          :
          ...................................................

 iter      E             dE          RMSdq      gap      omega  full diag
   1    -27.0611153 -0.270611E+02  0.110E-04    2.66       0.0  T
   2    -27.0611153 -0.875033E-11  0.893E-05    2.66     279.8  T
   3    -27.0611153 -0.978275E-10  0.386E-05    2.66     647.1  T

   *** convergence criteria satisfied after 3 iterations ***

         #    Occupation            Energy/Eh            Energy/eV
      -------------------------------------------------------------
         1        2.0000           -0.7318813             -19.9155
       ...           ...                  ...                  ...
        19        2.0000           -0.4569084             -12.4331
        20        2.0000           -0.4523641             -12.3095
        21        2.0000           -0.4453658             -12.1190
        22        2.0000           -0.4230908             -11.5129
        23        2.0000           -0.4000870             -10.8869
        24        2.0000           -0.3982297             -10.8364
        25        2.0000           -0.3703295             -10.0772 (HOMO)
        26                         -0.2723955              -7.4123 (LUMO)
        27                         -0.2196730              -5.9776
        28                         -0.2118801              -5.7656
        29                         -0.1980988              -5.3905
        30                         -0.1765157              -4.8032
       ...                                ...                  ...
        56                          0.7064144              19.2225
      -------------------------------------------------------------
                  HL-Gap            0.0979340 Eh            2.6649 eV
             Fermi-level           -0.3213625 Eh           -8.7447 eV

 SCC (total)                   0 d,  0 h,  0 min,  0.004 sec
 SCC setup                      ...        0 min,  0.000 sec (  1.482%)
 Dispersion                     ...        0 min,  0.000 sec (  0.880%)
 classical contributions        ...        0 min,  0.000 sec (  0.500%)
 integral evaluation            ...        0 min,  0.001 sec ( 18.003%)
 iterations                     ...        0 min,  0.002 sec ( 39.442%)
 molecular gradient             ...        0 min,  0.002 sec ( 37.210%)
 printout                       ...        0 min,  0.000 sec (  1.857%)

         :::::::::::::::::::::::::::::::::::::::::::::::::::::
         ::                     SUMMARY                     ::
         :::::::::::::::::::::::::::::::::::::::::::::::::::::
         :: total energy             -26.648878216693 Eh    ::
         :: gradient norm              0.000731326575 Eh/a0 ::
         :: HOMO-LUMO gap              2.664919575842 eV    ::
         ::.................................................::
         :: SCC energy               -27.061115345195 Eh    ::
         :: -> isotropic ES            0.001372385772 Eh    ::
         :: -> anisotropic ES          0.000930767016 Eh    ::
         :: -> anisotropic XC          0.013699821722 Eh    ::
         :: -> dispersion             -0.017466024451 Eh    ::
         :: repulsion energy           0.412258676960 Eh    ::
         :: add. restraining           0.000000000000 Eh    ::
         :: total charge               0.000000000000 e     ::
         :::::::::::::::::::::::::::::::::::::::::::::::::::::

           -------------------------------------------------
          |                Property Printout                |
           -------------------------------------------------

    * Orbital Energies and Occupations

         #    Occupation            Energy/Eh            Energy/eV
      -------------------------------------------------------------
         1        2.0000           -0.7318813             -19.9155
       ...           ...                  ...                  ...
        13        2.0000           -0.4996605             -13.5965
        14        2.0000           -0.4849961             -13.1974
        15        2.0000           -0.4759811             -12.9521
        16        2.0000           -0.4718087             -12.8386
        17        2.0000           -0.4689804             -12.7616
        18        2.0000           -0.4655058             -12.6671
        19        2.0000           -0.4569084             -12.4331
        20        2.0000           -0.4523641             -12.3095
        21        2.0000           -0.4453658             -12.1190
        22        2.0000           -0.4230908             -11.5129
        23        2.0000           -0.4000870             -10.8869
        24        2.0000           -0.3982297             -10.8364
        25        2.0000           -0.3703295             -10.0772 (HOMO)
        26                         -0.2723955              -7.4123 (LUMO)
        27                         -0.2196730              -5.9776
        28                         -0.2118801              -5.7656
        29                         -0.1980988              -5.3905
        30                         -0.1765157              -4.8032
        31                         -0.1484621              -4.0399
        32                         -0.1332564              -3.6261
        33                         -0.1023369              -2.7847
        34                         -0.0093992              -0.2558
        35                          0.0070868               0.1928
        36                          0.0187577               0.5104
       ...                                ...                  ...
        56                          0.7064144              19.2225
      -------------------------------------------------------------
                  HL-Gap            0.0979340 Eh            2.6649 eV
             Fermi-level           -0.3213625 Eh           -8.7447 eV

     #   Z          covCN         q      C6AA      α(0)
     1   6 C        3.109    -0.042    28.887     8.806
     2   6 C        2.941    -0.020    28.497     8.755
     3  16 S        2.330    -0.033   142.415    20.085
     4   6 C        3.023     0.020    27.542     8.608
     5   6 C        3.023     0.020    27.542     8.608
     6   6 C        3.111    -0.051    29.107     8.839
     7   6 C        3.108    -0.042    28.890     8.806
     8   6 C        2.940    -0.020    28.498     8.755
     9  16 S        2.329    -0.033   142.411    20.085
    10   6 C        3.112    -0.051    29.105     8.838
    11   1 H        0.926     0.038     2.471     2.458
    12   1 H        0.926     0.045     2.386     2.416
    13   1 H        0.926     0.042     2.416     2.431
    14   1 H        0.926     0.038     2.470     2.458
    15   1 H        0.926     0.045     2.386     2.416
    16   1 H        0.926     0.042     2.418     2.431

 Mol. C6AA /au·bohr⁶  :       5757.728364
 Mol. C8AA /au·bohr⁸  :     184036.074201
 Mol. α(0) /au        :        124.795314


Wiberg/Mayer (AO) data.
largest (>0.10) Wiberg bond orders for each atom

 ---------------------------------------------------------------------------
     #   Z sym  total        # sym  WBO       # sym  WBO       # sym  WBO
 ---------------------------------------------------------------------------
     1   6 C    3.988 --     2 C    1.609    10 C    1.295    11 H    0.965
     2   6 C    3.934 --     1 C    1.609     3 S    1.192    12 H    0.971
                             4 C    0.101
     3  16 S    2.605 --     2 C    1.192     4 C    1.127
     4   6 C    3.953 --    10 C    1.518     5 C    1.150     3 S    1.127
                             2 C    0.101
     5   6 C    3.953 --     6 C    1.518     4 C    1.150     9 S    1.127
                             8 C    0.101
     6   6 C    3.987 --     5 C    1.518     7 C    1.296    13 H    0.962
     7   6 C    3.988 --     8 C    1.608     6 C    1.296    14 H    0.965
     8   6 C    3.934 --     7 C    1.608     9 S    1.192    15 H    0.971
                             5 C    0.101
     9  16 S    2.606 --     8 C    1.192     5 C    1.127
    10   6 C    3.986 --     4 C    1.518     1 C    1.295    16 H    0.962
    11   1 H    0.998 --     1 C    0.965
    12   1 H    0.997 --     2 C    0.971
    13   1 H    0.998 --     6 C    0.962
    14   1 H    0.998 --     7 C    0.965
    15   1 H    0.997 --     8 C    0.971
    16   1 H    0.998 --    10 C    0.962
 ---------------------------------------------------------------------------

Topologies differ in total number of bonds
Writing topology from bond orders to xtbtopo.mol

MOs/occ written to file <molden.input>


molecular dipole:
                 x           y           z       tot (Debye)
 q only:       -0.000      -0.000      -0.001
   full:        0.000      -0.000      -0.001       0.004
molecular quadrupole (traceless):
                xx          xy          yy          xz          yz          zz
 q only:       -0.574       1.429       3.058       0.480      -0.122      -2.484
  q+dip:       -0.896       4.030       6.424       1.095       0.020      -5.528
   full:       -2.106       4.028       6.010       0.162       0.242      -3.904

           -------------------------------------------------
          |                Geometry Summary                 |
           -------------------------------------------------

      molecular mass/u    :      166.2631065
   center of mass at/Å    :       -0.4238473       2.0597508      -0.0478921
  moments of inertia/u·Å² :        0.1880885E+03   0.7570145E+03   0.9451014E+03
rotational constants/cm⁻¹ :        0.8962609E-01   0.2226857E-01   0.1783685E-01

 * 17 selected distances

     #   Z          #   Z                                           value/Å
     1   6 C        2   6 C                                       1.3580514
     2   6 C        3  16 S                                       1.7189914
     3  16 S        4   6 C                                       1.7417476 (max)
     4   6 C        5   6 C                                       1.4285479
     5   6 C        6   6 C                                       1.3701176
     6   6 C        7   6 C                                       1.4076967
     7   6 C        8   6 C                                       1.3584230
     5   6 C        9  16 S                                       1.7417438
     8   6 C        9  16 S                                       1.7190684
     1   6 C       10   6 C                                       1.4077220
     4   6 C       10   6 C                                       1.3700077
     1   6 C       11   1 H                                       1.0753684
     2   6 C       12   1 H                                       1.0716609 (min)
     6   6 C       13   1 H                                       1.0751994
     7   6 C       14   1 H                                       1.0751599
     8   6 C       15   1 H                                       1.0717932
    10   6 C       16   1 H                                       1.0760226

 * 3 distinct bonds (by element types)

   Z      Z             #   av. dist./Å        max./Å        min./Å
   1 H    6 C           6     1.0742007     1.0760226     1.0716609
   6 C    6 C           7     1.3857952     1.4285479     1.3580514
   6 C   16 S           4     1.7303878     1.7417476     1.7189914


optimized geometry written to: xtbopt.xyz


           -------------------------------------------------
          | TOTAL ENERGY              -26.648878216693 Eh   |
          | GRADIENT NORM               0.000731326575 Eh/α |
          | HOMO-LUMO GAP               2.664919575842 eV   |
           -------------------------------------------------

------------------------------------------------------------------------
 * finished run on 2022/07/20 at 15:45:08.762     
------------------------------------------------------------------------
 total:
 * wall-time:     0 d,  0 h,  0 min,  0.328 sec
 *  cpu-time:     0 d,  0 h,  0 min,  5.194 sec
 * ratio c/w:    15.840 speedup
 SCF:
 * wall-time:     0 d,  0 h,  0 min,  0.010 sec
 *  cpu-time:     0 d,  0 h,  0 min,  0.149 sec
 * ratio c/w:    15.119 speedup
 ANC optimizer:
 * wall-time:     0 d,  0 h,  0 min,  0.298 sec
 *  cpu-time:     0 d,  0 h,  0 min,  4.763 sec
 * ratio c/w:    15.969 speedup

