16
 energy: -26.648878216693 gnorm: 0.000731326575 xtb: 6.5.0 (746241f)
C            0.92264775264559        4.74436884907819        0.09413895455286
C           -0.28659611371305        5.21190389853168       -0.31014246291404
S           -1.43281290797700        3.94931548629711       -0.52691059401613
C           -0.25483801431252        2.75355303006815       -0.06192520875766
C           -0.59374878415365        1.36614517929339       -0.03049579058934
C           -1.79233934826392        0.77549158762432       -0.33336669375105
C           -1.76903410169727       -0.62525342635341       -0.19559888479357
C           -0.55963945246522       -1.09287918097867        0.20937445680826
S            0.58422940531048        0.17045394177700        0.43465010881514
C            0.94468780310271        3.34408402683604        0.23695901434680
H            1.77179450504657        5.37630206278391        0.28394712133870
H           -0.58370855373131        6.22450732182885       -0.49673113651768
H           -2.65512958947889        1.33710045485721       -0.64359567622439
H           -2.61667612736203       -1.25724877301489       -0.39067161078186
H           -0.26179079195167       -2.10587035609468        0.39342716269486
H            1.80785431900106        2.78222589746587        0.54854123978893
