      -----------------------------------------------------------      
     |                   =====================                   |     
     |                           x T B                           |     
     |                   =====================                   |     
     |                         S. Grimme                         |     
     |          Mulliken Center for Theoretical Chemistry        |     
     |                    University of Bonn                     |     
      -----------------------------------------------------------      

   * xtb version 6.2.2 (655bc02) compiled by 'ehlert@majestix' on 2019-12-09

   This program is distributed in the hope that it will be useful,
   but WITHOUT ANY WARRANTY; without even the implied warranty of
   MERCHANTABILITY or FITNESS FOR A PARTICULAR PURPOSE.
   
   FOR NON-COMMERCIAL, ACADEMIA USE ONLY.
   
   Cite this work as:
   * S. Grimme, C. Bannwarth, P. Shushkov, J. Chem. Theory Comput., 2017,
     13, 1989-2009. DOI: 10.1021/acs.jctc.7b00118
   * C. Bannwarth, S. Ehlert and S. Grimme., J. Chem. Theory Comput., 2019,
     15, 1652-1671. DOI: 10.1021/acs.jctc.8b01176
   * P. Pracht, E. Caldeweyher, S. Ehlert, S. Grimme, ChemRxiv, 2019, preprint.
     DOI: 10.26434/chemrxiv.8326202.v1
   
   for DFT-D4:
   * E. Caldeweyher, C. Bannwarth and S. Grimme, J. Chem. Phys., 2017,
     147, 034112. DOI: 10.1063/1.4993215
   * E. Caldeweyher, S. Ehlert, A. Hansen, H. Neugebauer, S. Spicher,
     C. Bannwarth and S. Grimme, J. Chem. Phys., 2019, 150, 154122.
     DOI: 10.1063/1.5090222
   
   for sTDA-xTB:
   * S. Grimme and C. Bannwarth, J. Chem. Phys., 2016, 145, 054103.
     DOI: 10.1063/1.4959605
   
   in the mass-spec context:
   * V. Asgeirsson, C. Bauer and S. Grimme, Chem. Sci., 2017, 8, 4879.
     DOI: 10.1039/c7sc00601b
   
   for metadynamics refer to:
   * S. Grimme, J. Chem. Theory Comput., 2019, 155, 2847-2862
     DOI: 10.1021/acs.jctc.9b00143
   
   with help from (in alphabetical order)
   C. Bannwarth, F. Bohle, G. Brandenburg, E. Caldeweyher, M. Checinski,
   S. Dohm, S. Ehlert, S. Ehrlich, F. März, H. Neugebauer, J. Pisarek,
   P. Pracht, P. Shushkov, and S. Spicher.
   
 * started run on 2022/07/20 at 09:54:41.706     

           -------------------------------------------------
          |                Calculation Setup                |
           -------------------------------------------------

          program call               : xtb -c 0 -u 0 input.xyz
          coordinate file            : input.xyz
          omp threads                :                     1
          number of atoms            :                    24
          number of electrons        :                    60
          charge                     :                     0
          spin                       :                   0.0
          first test random number   :      0.98511333192449


molecular fragmentation (1/2 indicates fragments):
111111111111222222222222
# atoms in fragment 1/2:    12    12
 fragment masses (1/2) :       78.11       78.11
CMA distance (Bohr)    :   5.669
constraining FC (au)   :  0.0500

########################################################################
# WARNING! Please study the warnings concerning your input carefully
#  - XTBHOME is not set, using HOME instead
#  - XTBPATH is not set, using XTBHOME instead
########################################################################

           ------------------------------------------------- 
          |                 G F N 2 - x T B                 |
          | Geometry, Frequencies, Noncovalent interactions |
          |            JCTC 2019 parametrisation            |
           ------------------------------------------------- 
             k(s)              :                1.8500
             k(p)              :                2.2300
             k(d)              :                2.2300
             k(f)              :                2.0000
             kEN (H0ij)        :               -2.0000
             D4 a1             :                0.5200
             D4 a2             :                5.0000
             D4 s6             :                1.0000
             D4 s8             :                2.7000
             D4 s9             :                5.0000
             alphaj            :                2.0000

  Z AO/shell   Hii/eV     exponent
  1     Wed Apr 25 08:07:45 CEST 2018   EN: 2.200 GM2: 0.406  GM3: 0.0800  RAES: 1.40
     1s    -10.707211    1.230000
  6     Wed Apr 25 08:07:45 CEST 2018   EN: 2.550 GM2: 0.538  GM3: 0.1500  RAES: 3.00
     2s    -13.970922    2.096432
     2p    -10.063292    1.800000

           ------------------------------------------------- 
          |        Self-Consistent Charge Iterations        |
           ------------------------------------------------- 

          ...................................................
          :                      SETUP                      :
          :.................................................:
          :  # basis functions                  60          :
          :  # atomic orbitals                  60          :
          :  # shells                           36          :
          :  # electrons                        60          :
          :  max. iterations                   250          :
          :  Hamiltonian                  GFN2-xTB          :
          :  restarted?                      false          :
          :  GBSA solvation                  false          :
          :  PC potential                    false          :
          :  electronic temp.          300.0000000     K    :
          :  accuracy                    1.0000000          :
          :  -> integral cutoff          0.2500000E+02      :
          :  -> integral neglect         0.1000000E-07      :
          :  -> SCF convergence          0.1000000E-05 Eh   :
          :  -> wf. convergence          0.1000000E-03 e    :
          :  Broyden damping             0.4000000          :
          ...................................................

 iter      E             dE          RMSdq      gap      omega  full diag
   1    -32.3594260 -0.323594E+02  0.494E+00    4.26       0.0  T
   2    -32.3933393 -0.339133E-01  0.296E+00    4.22       1.0  T
   3    -32.3940428 -0.703524E-03  0.513E-01    4.19       1.0  T
   4    -32.3945815 -0.538650E-03  0.556E-02    4.19       1.0  T
   5    -32.3945816 -0.168118E-06  0.520E-03    4.19       3.9  T
   6    -32.3945816 -0.848366E-08  0.112E-03    4.19      18.3  T
   7    -32.3945816 -0.270269E-09  0.618E-05    4.19     330.2  T
   8    -32.3945816 -0.971028E-10  0.227E-05    4.19     899.4  T

   *** convergence criteria satisfied after 8 iterations ***

         #    Occupation            Energy/Eh            Energy/eV
      -------------------------------------------------------------
         1        2.0000           -0.6386905             -17.3797
       ...           ...                  ...                  ...
        24        2.0000           -0.4213260             -11.4649
        25        2.0000           -0.4171326             -11.3508
        26        2.0000           -0.4171324             -11.3508
        27        2.0000           -0.4127047             -11.2303
        28        2.0000           -0.4127046             -11.2303
        29        2.0000           -0.3847899             -10.4707
        30        2.0000           -0.3847898             -10.4707 (HOMO)
        31                         -0.2309387              -6.2842 (LUMO)
        32                         -0.2309386              -6.2842
        33                         -0.2051778              -5.5832
        34                         -0.2051777              -5.5832
        35                         -0.0979478              -2.6653
       ...                                ...                  ...
        60                          0.6798060              18.4985
      -------------------------------------------------------------
                  HL-Gap            0.1538511 Eh            4.1865 eV
             Fermi-level           -0.3078642 Eh           -8.3774 eV

 SCC (total)                   0 d,  0 h,  0 min,  0.024 sec
 SCC setup                      ...        0 min,  0.000 sec (  0.541%)
 Dispersion                     ...        0 min,  0.000 sec (  0.674%)
 integral evaluation            ...        0 min,  0.005 sec ( 21.535%)
 zeroth order Hamiltonian       ...        0 min,  0.000 sec (  0.366%)
 iterations                     ...        0 min,  0.005 sec ( 18.977%)
 molecular gradient             ...        0 min,  0.012 sec ( 51.116%)
 printout                       ...        0 min,  0.002 sec (  6.671%)

         :::::::::::::::::::::::::::::::::::::::::::::::::::::
         ::                     SUMMARY                     ::
         :::::::::::::::::::::::::::::::::::::::::::::::::::::
         :: total energy             -31.760567679175 Eh    ::
         :: gradient norm              0.009943684605 Eh/a0 ::
         :: HOMO-LUMO gap              4.186501938767 eV    ::
         ::.................................................::
         :: SCC energy               -32.394581635789 Eh    ::
         :: -> isotropic ES            0.001682132127 Eh    ::
         :: -> anisotropic ES          0.006296493968 Eh    ::
         :: -> anisotropic XC          0.025149982280 Eh    ::
         :: -> dispersion             -0.027385425264 Eh    ::
         :: repulsion energy           0.633696698784 Eh    ::
         :: add. restraining           0.000000000000 Eh    ::
         :::::::::::::::::::::::::::::::::::::::::::::::::::::

           -------------------------------------------------
          |                Property Printout                |
           -------------------------------------------------

    * Orbital Energies and Occupations

         #    Occupation            Energy/Eh            Energy/eV
      -------------------------------------------------------------
         1        2.0000           -0.6386905             -17.3797
       ...           ...                  ...                  ...
        18        2.0000           -0.4760613             -12.9543
        19        2.0000           -0.4760610             -12.9543
        20        2.0000           -0.4717021             -12.8357
        21        2.0000           -0.4717019             -12.8357
        22        2.0000           -0.4564543             -12.4208
        23        2.0000           -0.4213262             -11.4649
        24        2.0000           -0.4213260             -11.4649
        25        2.0000           -0.4171326             -11.3508
        26        2.0000           -0.4171324             -11.3508
        27        2.0000           -0.4127047             -11.2303
        28        2.0000           -0.4127046             -11.2303
        29        2.0000           -0.3847899             -10.4707
        30        2.0000           -0.3847898             -10.4707 (HOMO)
        31                         -0.2309387              -6.2842 (LUMO)
        32                         -0.2309386              -6.2842
        33                         -0.2051778              -5.5832
        34                         -0.2051777              -5.5832
        35                         -0.0979478              -2.6653
        36                         -0.0763198              -2.0768
        37                          0.1114823               3.0336
        38                          0.1285445               3.4979
        39                          0.1345322               3.6608
        40                          0.1443580               3.9282
        41                          0.1686119               4.5882
       ...                                ...                  ...
        60                          0.6798060              18.4985
      -------------------------------------------------------------
                  HL-Gap            0.1538511 Eh            4.1865 eV
             Fermi-level           -0.3078642 Eh           -8.3774 eV

     #   Z        covCN         q      C6AA      α(0)
     1   1 H      0.926     0.028     2.614     2.528
     2   6 C      2.920    -0.028    28.702     8.786
     3   6 C      2.920    -0.028    28.702     8.786
     4   1 H      0.926     0.028     2.614     2.528
     5   6 C      2.920    -0.028    28.702     8.786
     6   1 H      0.926     0.028     2.614     2.528
     7   6 C      2.920    -0.028    28.702     8.786
     8   1 H      0.926     0.028     2.614     2.528
     9   6 C      2.920    -0.028    28.702     8.786
    10   1 H      0.926     0.028     2.614     2.528
    11   6 C      2.920    -0.028    28.702     8.786
    12   1 H      0.926     0.028     2.614     2.528
    13   1 H      0.926     0.028     2.614     2.528
    14   6 C      2.920    -0.028    28.702     8.786
    15   6 C      2.920    -0.028    28.702     8.786
    16   1 H      0.926     0.028     2.614     2.528
    17   6 C      2.920    -0.028    28.702     8.786
    18   1 H      0.926     0.028     2.614     2.528
    19   6 C      2.920    -0.028    28.702     8.786
    20   1 H      0.926     0.028     2.614     2.528
    21   6 C      2.920    -0.028    28.702     8.786
    22   1 H      0.926     0.028     2.614     2.528
    23   6 C      2.920    -0.028    28.702     8.786
    24   1 H      0.926     0.028     2.614     2.528

 Mol. C6AA /au·bohr⁶  :       7000.731959
 Mol. C8AA /au·bohr⁸  :     170667.662830
 Mol. α(0) /au        :        135.765005


Wiberg/Mayer (AO) data.
largest (>0.10) Wiberg bond orders for each atom
          total WBO             WBO to atom ...
     1  H   0.999        C    2 0.971
     2  C   3.993        C    3 1.441    C   11 1.441    H    1 0.971    C    7 0.114
     3  C   3.993        C    2 1.441    C    5 1.441    H    4 0.971    C    9 0.114
     4  H   0.999        C    3 0.971
     5  C   3.993        C    7 1.441    C    3 1.441    H    6 0.971    C   11 0.114
     6  H   0.999        C    5 0.971
     7  C   3.993        C    5 1.441    C    9 1.441    H    8 0.971    C    2 0.114
     8  H   0.999        C    7 0.971
     9  C   3.993        C   11 1.441    C    7 1.441    H   10 0.971    C    3 0.114
    10  H   0.999        C    9 0.971
    11  C   3.993        C    9 1.441    C    2 1.441    H   12 0.971    C    5 0.114
    12  H   0.999        C   11 0.971
    13  H   0.999        C   14 0.971
    14  C   3.993        C   15 1.441    C   23 1.441    H   13 0.971    C   19 0.114
    15  C   3.993        C   14 1.441    C   17 1.441    H   16 0.971    C   21 0.114
    16  H   0.999        C   15 0.971
    17  C   3.993        C   19 1.441    C   15 1.441    H   18 0.971    C   23 0.114
    18  H   0.999        C   17 0.971
    19  C   3.993        C   17 1.441    C   21 1.441    H   20 0.971    C   14 0.114
    20  H   0.999        C   19 0.971
    21  C   3.993        C   23 1.441    C   19 1.441    H   22 0.971    C   15 0.114
    22  H   0.999        C   21 0.971
    23  C   3.993        C   21 1.441    C   14 1.441    H   24 0.971    C   17 0.114
    24  H   0.999        C   23 0.971

molecular dipole:
                 x           y           z       tot (Debye)
 q only:        0.000       0.000      -0.000
   full:       -0.000      -0.000      -0.000       0.000
molecular quadrupole (traceless):
                xx          xy          yy          xz          yz          zz
 q only:        1.251       0.000       1.251       0.000      -0.000      -2.502
  q+dip:        5.551      -0.000       5.551       0.000      -0.000     -11.102
   full:        2.798      -0.000       2.798       0.000      -0.000      -5.595


           -------------------------------------------------
          | TOTAL ENERGY              -31.760567679175 Eh   |
          | GRADIENT NORM               0.009943684605 Eh/α |
          | HOMO-LUMO GAP               4.186501938767 eV   |
           -------------------------------------------------

------------------------------------------------------------------------
 * finished run on 2022/07/20 at 09:54:41.765     
------------------------------------------------------------------------
 total:
 * wall-time:     0 d,  0 h,  0 min,  0.059 sec
 *  cpu-time:     0 d,  0 h,  0 min,  0.039 sec
 * ratio c/w:     0.652 speedup
 SCF:
 * wall-time:     0 d,  0 h,  0 min,  0.024 sec
 *  cpu-time:     0 d,  0 h,  0 min,  0.023 sec
 * ratio c/w:     0.940 speedup

