[Molden Format]
[Title]
[Atoms] AU
TI     1    22  0.23453203651690E-14 -0.77400148097743E-14 -0.28144876676287E-14
CL     2    17  0.23033378948288E+01  0.23033378948288E+01  0.23033378948288E+01
CL     3    17 -0.23033378948288E+01 -0.23033378948288E+01  0.23033378948288E+01
CL     4    17 -0.23033378948288E+01  0.23033378948288E+01 -0.23033378948288E+01
CL     5    17  0.23033378948288E+01 -0.23033378948288E+01 -0.23033378948288E+01
[GTO]
           1 0
 d           3   1.00000000000000     
   1.78965205039594       0.768715417992232     
  0.561148048664058       0.350187985904717     
  0.218580994639160       4.665654308332088E-002
 s           4   1.00000000000000     
  0.700593566596931      -6.116351220002565E-002
  0.359396287066546      -9.413209166694780E-002
  0.109794895300837       0.121120667627678     
  6.113188620008932E-002  3.082360758957682E-002
 p           4   1.00000000000000     
   1.36817499430526      -1.272946122610613E-002
  0.396684256606224      -2.698422505253177E-002
  6.923478961433535E-002  3.265934614504144E-002
  3.397294755585609E-002  8.561205697548552E-003
 
           2 0
 s           4   1.00000000000000     
   9.34674866189868      -0.125552785052236     
   2.63274953955161      -0.254029831967196     
  0.472092932487140       0.305184566430756     
  0.232271649766237       8.559661830788402E-002
 p           4   1.00000000000000     
   8.96653868620652      -0.317209215069455     
  0.926601749794952       0.357031125217298     
  0.418792332287928       0.280771537007085     
  0.202453454537036       4.152131922185704E-002
 d           3   1.00000000000000     
   3.20597745654841        2.13231494102881     
   1.00523897559031       0.971375176087544     
  0.391565355448865       0.129419082256946     
 
           3 0
 s           4   1.00000000000000     
   9.34674866189868      -0.125552785052236     
   2.63274953955161      -0.254029831967196     
  0.472092932487140       0.305184566430756     
  0.232271649766237       8.559661830788402E-002
 p           4   1.00000000000000     
   8.96653868620652      -0.317209215069455     
  0.926601749794952       0.357031125217298     
  0.418792332287928       0.280771537007085     
  0.202453454537036       4.152131922185704E-002
 d           3   1.00000000000000     
   3.20597745654841        2.13231494102881     
   1.00523897559031       0.971375176087544     
  0.391565355448865       0.129419082256946     
 
           4 0
 s           4   1.00000000000000     
   9.34674866189868      -0.125552785052236     
   2.63274953955161      -0.254029831967196     
  0.472092932487140       0.305184566430756     
  0.232271649766237       8.559661830788402E-002
 p           4   1.00000000000000     
   8.96653868620652      -0.317209215069455     
  0.926601749794952       0.357031125217298     
  0.418792332287928       0.280771537007085     
  0.202453454537036       4.152131922185704E-002
 d           3   1.00000000000000     
   3.20597745654841        2.13231494102881     
   1.00523897559031       0.971375176087544     
  0.391565355448865       0.129419082256946     
 
           5 0
 s           4   1.00000000000000     
   9.34674866189868      -0.125552785052236     
   2.63274953955161      -0.254029831967196     
  0.472092932487140       0.305184566430756     
  0.232271649766237       8.559661830788402E-002
 p           4   1.00000000000000     
   8.96653868620652      -0.317209215069455     
  0.926601749794952       0.357031125217298     
  0.418792332287928       0.280771537007085     
  0.202453454537036       4.152131922185704E-002
 d           3   1.00000000000000     
   3.20597745654841        2.13231494102881     
   1.00523897559031       0.971375176087544     
  0.391565355448865       0.129419082256946     
 
[MO]
Sym=     1a
Ene=   -1.11560552980990     
Spin= Alpha
Occup=     2.00000000
           1  2.316805735013684E-018
           2  2.013900457483548E-018
           3 -4.330706192497232E-018
           4  3.847527166970308E-002
           5 -3.850980493919177E-002
           6  2.142135951110054E-004
           7 -7.858319906569293E-015
           8 -7.373587623449501E-004
           9  0.132557142759268     
          10 -0.132438273511793     
          11 -1.493033562367105E-003
          12  4.681221927830900E-005
          13 -1.057374633686074E-002
          14  1.054039793381621E-002
          15 -3.168533687160314E-005
          16  7.919211202217395E-003
          17 -7.887525865345791E-003
          18  3.773312253661645E-003
          19 -3.807185356233130E-003
          20  5.856636776760653E-006
          21 -0.637918896759110     
          22  5.159682436162528E-003
          23 -5.460876119976489E-003
          24  5.451404928075231E-003
          25  5.298234211668263E-003
          26 -2.652662327420772E-003
          27 -2.645571884247491E-003
          28 -2.721391620409709E-003
          29  2.717991229342324E-003
          30  6.531033222352330E-003
          31  0.641478864561958     
          32 -5.070647026282756E-003
          33 -5.432409880157087E-003
          34  5.422938688255091E-003
          35 -5.239590500040582E-003
          36  2.623340471607001E-003
          37  2.616250028433581E-003
          38 -2.757720968442152E-003
          39  2.754320577374887E-003
          40 -6.525176585327061E-003
          41 -2.066934240537212E-003
          42  4.222319060107775E-005
          43 -1.054528009704071E-002
          44  1.056886417363680E-002
          45 -2.695837475611821E-005
          46 -7.889889346403582E-003
          47  7.916847721159701E-003
          48  3.809641601694029E-003
          49 -3.770856008200916E-003
          50  2.486552409818016E-013
Sym=     2a
Ene=   -1.11560552980990     
Spin= Alpha
Occup=     2.00000000
           1 -3.036053831161641E-017
           2  2.182627286136599E-016
           3 -1.879021903020435E-016
           4  3.632795390399990E-002
           5  3.619376485329727E-002
           6 -1.826714659900349E-002
           7  1.111201618732872E-014
           8  6.287855166631255E-002
           9 -0.124584948228891     
          10 -0.125046849222126     
          11 -0.450822297114724     
          12 -8.614867607210941E-003
          13  6.321735591331663E-003
          14  6.358538658898277E-003
          15  7.463869546959973E-003
          16 -3.718158785098649E-003
          17 -3.745710761861323E-003
          18 -1.023517469768162E-003
          19 -1.036730677092650E-003
          20 -6.399338954982849E-003
          21 -0.152903839760733     
          22 -3.787348385239246E-003
          23  1.114925481330332E-002
          24  8.740756342730825E-003
          25 -2.491248524314101E-003
          26  8.690779807744490E-003
          27 -6.199531283430390E-003
          28  2.016730061052538E-003
          29  5.124273623311542E-003
          30 -2.383346545786306E-004
          31 -0.150673781954402     
          32 -3.805180389302843E-003
          33  8.721785279227552E-003
          34  1.116822587680624E-002
          35 -2.509616508822535E-003
          36 -6.190347291176124E-003
          37  8.699963799998659E-003
          38  5.114729168020834E-003
          39  2.026274516343217E-003
          40 -2.610923171937933E-004
          41  0.754399918829938     
          42  1.022338832669259E-003
          43  3.894266057255431E-003
          44  3.931069124822264E-003
          45 -2.463004513823257E-003
          46  1.217726268530154E-003
          47  1.245278245293103E-003
          48 -4.121516576735991E-003
          49 -4.134729784060756E-003
          50  5.899911983210061E-003
Sym=     3a
Ene=   -1.11560552980990     
Spin= Alpha
Occup=     2.00000000
           1 -1.963337746506411E-017
           2  9.183267574765279E-017
           3 -7.219929828258867E-017
           4  1.278009112126339E-002
           5  1.305388077416138E-002
           6  5.128023948503529E-002
           7  5.953782866691971E-015
           8 -0.176515098865883     
           9 -4.493362508782640E-002
          10 -4.399119564258521E-002
          11 -0.640771911596691     
          12  8.940518223931370E-003
          13 -1.543550745232870E-003
          14 -1.618641067744283E-003
          15 -5.251215676525602E-003
          16  2.597500305960393E-003
          17  2.653715370565209E-003
          18 -5.280636574992661E-003
          19 -5.253677300535491E-003
          20 -1.489638429535852E-003
          21  0.428382437035424     
          22  1.063882844832439E-002
          23  1.547594791598106E-004
          24  6.930538525487352E-003
          25  7.000572382627639E-003
          26 -8.481435998585465E-004
          27 -6.152428782769092E-003
          28  5.630046493672385E-003
          29 -3.086250074500800E-003
          30  6.777887964988324E-004
          31  0.423832388059440     
          32  1.067521158224991E-002
          33  6.969245714072544E-003
          34  1.160522905744552E-004
          35  7.038049092364169E-003
          36 -6.171167137637344E-003
          37 -8.668819547268247E-004
          38 -3.066776256872311E-003
          39  5.610572676043811E-003
          40  7.242218885846430E-004
          41 -0.211442913498129     
          42  1.237352180664390E-002
          43  5.270935489679053E-003
          44  5.195845167167906E-003
          45 -8.787405798465993E-003
          46  4.421810431535466E-003
          47  4.365595366930528E-003
          48  3.416186175552334E-003
          49  3.443145450009549E-003
          50  2.891649114619063E-003
Sym=     4a
Ene=   -1.10716768316951     
Spin= Alpha
Occup=     2.00000000
           1  3.629470287702918E-017
           2  2.403049491394463E-016
           3 -2.765996520164755E-016
           4  2.572752703845373E-016
           5  2.691269008450406E-015
           6  6.350915873298457E-016
           7 -0.222019811774576     
           8 -1.470152017776347E-015
           9 -1.168054175136377E-014
          10 -2.540090980658603E-015
          11 -0.431712876092585     
          12 -4.300785201447372E-003
          13 -4.300785201446142E-003
          14 -4.300785201447002E-003
          15  2.887835105711679E-016
          16 -4.088354538722510E-016
          17  1.200519433010831E-016
          18  1.784192303863353E-003
          19  1.784192303863610E-003
          20  1.784192303863240E-003
          21 -0.431712876092523     
          22  4.300785201447201E-003
          23  4.300785201448151E-003
          24 -4.300785201446475E-003
          25 -5.813726270504442E-017
          26  4.643206797806096E-016
          27 -4.061834170755652E-016
          28  1.784192303863953E-003
          29 -1.784192303863589E-003
          30 -1.784192303863784E-003
          31 -0.431712876092565     
          32  4.300785201447849E-003
          33 -4.300785201446227E-003
          34  4.300785201447757E-003
          35  3.070311421497812E-016
          36 -5.777183974440776E-016
          37  2.706872552942964E-016
          38 -1.784192303863422E-003
          39  1.784192303863783E-003
          40 -1.784192303863289E-003
          41 -0.431712876092519     
          42 -4.300785201446592E-003
          43  4.300785201448173E-003
          44  4.300785201447187E-003
          45 -2.753026989619483E-016
          46  3.604025632278316E-016
          47 -8.509986426588338E-017
          48 -1.784192303863906E-003
          49 -1.784192303863492E-003
          50  1.784192303864010E-003
Sym=     5a
Ene=  -0.573166851496955     
Spin= Alpha
Occup=     2.00000000
           1  1.757647114153880E-016
           2 -1.602309826203266E-016
           3 -1.553372879506142E-017
           4  3.830826648786461E-016
           5  5.694219740675924E-016
           6 -3.920518000580676E-016
           7  0.420869245959880     
           8 -3.879304273184014E-016
           9  5.420077158217951E-016
          10 -2.599662682083140E-016
          11 -0.178679823812741     
          12 -0.219022758310327     
          13 -0.219022758310326     
          14 -0.219022758310327     
          15 -5.936598910352772E-017
          16  1.522640655518490E-016
          17 -9.289807644832134E-017
          18  2.642602629455633E-003
          19  2.642602629455486E-003
          20  2.642602629455623E-003
          21 -0.178679823812741     
          22  0.219022758310330     
          23  0.219022758310329     
          24 -0.219022758310329     
          25  4.514073446926586E-017
          26 -1.377330833079969E-016
          27  9.259234883873099E-017
          28  2.642602629455361E-003
          29 -2.642602629455460E-003
          30 -2.642602629455333E-003
          31 -0.178679823812741     
          32  0.219022758310327     
          33 -0.219022758310327     
          34  0.219022758310326     
          35 -7.663393468832364E-017
          36  1.461081249994244E-016
          37 -6.947419031110075E-017
          38 -2.642602629455307E-003
          39  2.642602629455114E-003
          40 -2.642602629455332E-003
          41 -0.178679823812742     
          42 -0.219022758310331     
          43  0.219022758310328     
          44  0.219022758310327     
          45 -1.322507217819229E-016
          46  1.109556348991284E-016
          47  2.129508688279445E-017
          48 -2.642602629455144E-003
          49 -2.642602629455369E-003
          50  2.642602629455450E-003
Sym=     6a
Ene=  -0.487408980764232     
Spin= Alpha
Occup=     2.00000000
           1  5.665628039937499E-016
           2 -7.906332372968644E-016
           3  2.240704333031145E-016
           4  3.514290453263987E-002
           5 -4.260759769733715E-002
           6  0.135444247171059     
           7 -9.756271640775902E-016
           8 -0.138144022787487     
           9  4.345688406970451E-002
          10 -3.584339908098409E-002
          11  4.770098333302357E-002
          12 -0.291270992611661     
          13  0.376462208271767     
          14  8.488088956827662E-002
          15 -4.397137603832183E-003
          16  4.040902601653240E-003
          17  3.562350021789422E-004
          18 -1.908144782364033E-003
          19 -3.630212754165881E-003
          20  3.133936608913566E-004
          21 -2.150381275525653E-002
          22 -0.410267641531209     
          23  0.257465559352252     
          24 -0.229471334051412     
          25  5.507440585540534E-003
          26 -2.930599619945685E-003
          27 -2.576840965594849E-003
          28  1.989459151456080E-003
          29 -2.154791961528628E-003
          30  1.788814453528658E-003
          31 -7.946268657383644E-002
          32 -0.146998303375466     
          33 -0.201159353503616     
          34  0.229153578804457     
          35  3.050995519224173E-003
          36 -1.348618432436587E-003
          37 -1.702377086787587E-003
          38 -3.696959235892664E-003
          39  3.531626425819808E-003
          40 -1.475420792637053E-003
          41  5.326551599607067E-002
          42 -0.265994952295010     
          43 -8.216270458409601E-002
          44 -0.373744023287593     
          45 -4.161298500931970E-003
          46  2.383154507283901E-004
          47  3.922983050203581E-003
          48  3.778273604984679E-003
          49  2.056205633182923E-003
          50 -9.829169360095582E-017
Sym=     7a
Ene=  -0.487408980764231     
Spin= Alpha
Occup=     2.00000000
           1 -2.688631898133144E-015
           2  2.755251725088044E-015
           3 -6.661982695490031E-017
           4  0.103351659311970     
           5  0.103351659311966     
           6  5.695985181648263E-003
           7  6.222034880604957E-017
           8 -5.809521800783280E-003
           9 -0.105411741563931     
          10 -0.105411741563934     
          11  7.916620533208105E-002
          12  0.338239219605891     
          13 -2.799082939844066E-002
          14 -2.799082939845567E-002
          15  3.085327966186845E-003
          16 -1.542663983093249E-003
          17 -1.542663983093596E-003
          18 -2.169530224241944E-003
          19 -2.169530224241909E-003
          20 -4.332470705154701E-003
          21 -2.123027356396121E-003
          22 -1.171765737830532E-002
          23 -0.377947706382668     
          24 -0.397234761847360     
          25  1.799586407286370E-004
          26  4.807950590009195E-003
          27 -4.987909230737832E-003
          28  2.408667400958556E-003
          29  2.169530224241843E-003
          30  6.589743328972124E-006
          31 -2.123027356398066E-003
          32 -1.171765737829861E-002
          33 -0.397234761847333     
          34 -0.377947706382646     
          35  1.799586407285501E-004
          36 -4.987909230737731E-003
          37  4.807950590009181E-003
          38  2.169530224241959E-003
          39  2.408667400958965E-003
          40  6.589743328976603E-006
          41 -7.492015061928657E-002
          42 -0.361674534362515     
          43 -4.727788486315085E-002
          44 -4.727788486315152E-002
          45 -3.445245247644192E-003
          46  1.722622623822088E-003
          47  1.722622623822104E-003
          48 -1.930393047525375E-003
          49 -1.930393047525329E-003
          50  4.345650191812616E-003
Sym=     8a
Ene=  -0.487408980764231     
Spin= Alpha
Occup=     2.00000000
           1  4.616747090713455E-015
           2 -8.219718357516569E-015
           3  3.602971266803114E-015
           4  9.736008417588668E-002
           5 -9.433240348993720E-002
           6 -5.493620730755606E-002
           7  2.145198573933063E-016
           8  5.603123670929154E-002
           9  9.621270721712168E-002
          10 -9.930073788958541E-002
          11 -1.934752611417936E-002
          12  0.118139559021532     
          13  0.265883875846410     
          14 -0.453004706684243     
          15  1.783479682669152E-003
          16  3.650501546867035E-003
          17 -5.433981229536187E-003
          18  3.246043389302979E-003
          19 -9.996847278980453E-004
          20 -1.271125166492286E-004
          21  9.192430275062378E-002
          22 -0.211529371578494     
          23 -6.378505475359129E-002
          24  5.243059270251954E-002
          25  1.292509430849732E-003
          26 -5.745124333487150E-004
          27 -7.179969975010166E-004
          28 -3.020769641307926E-003
          29  3.087828654286309E-003
          30  3.960400865534978E-003
          31 -5.097227522555438E-002
          32  0.437556523814553     
          33  0.122233279840123     
          34 -0.133587741891202     
          35 -4.763812420086738E-003
          36  2.310163927967369E-003
          37  2.453648492119369E-003
          38 -7.143574762318402E-004
          39  7.814164892102713E-004
          40 -4.087513382184528E-003
          41 -2.160450141088992E-002
          42  0.107887593214562     
          43  0.451902210440158     
          44 -0.266986372090522     
          45  1.687823306567727E-003
          46 -5.386153041485897E-003
          47  3.698329734918170E-003
          48  9.396312242268202E-004
          49 -3.306096892974078E-003
          50  0.000000000000000E+000
Sym=     9a
Ene=  -0.473567188076985     
Spin= Alpha
Occup=     2.00000000
           1 -0.229946557790400     
           2  0.114973278946745     
           3  0.114973278843655     
           4 -1.576274754121946E-014
           5 -3.331016724939085E-014
           6  2.126599560152907E-014
           7 -5.918182890702359E-016
           8  5.651094562431766E-016
           9  4.412291641252430E-015
          10 -5.833926624749621E-016
          11  6.258399285937843E-016
          12 -0.377300849236153     
          13  0.188650424702703     
          14  0.188650424533515     
          15 -3.057166238314364E-003
          16  1.528583119842621E-003
          17  1.528583118471742E-003
          18 -9.431056047055877E-004
          19 -9.431056055517272E-004
          20  1.886211210258228E-003
          21  3.078767420081538E-015
          22  0.377300849236171     
          23 -0.188650424702661     
          24  0.188650424533548     
          25 -3.057166238313695E-003
          26  1.528583119841595E-003
          27  1.528583118472100E-003
          28 -9.431056047063187E-004
          29  9.431056055513058E-004
          30 -1.886211210257817E-003
          31  1.571694659866418E-015
          32  0.377300849236132     
          33  0.188650424702713     
          34 -0.188650424533521     
          35 -3.057166238314204E-003
          36  1.528583119842892E-003
          37  1.528583118471312E-003
          38  9.431056047052135E-004
          39 -9.431056055514201E-004
          40 -1.886211210258165E-003
          41 -3.708469556427523E-015
          42 -0.377300849236251     
          43 -0.188650424702583     
          44 -0.188650424533468     
          45 -3.057166238314009E-003
          46  1.528583119842135E-003
          47  1.528583118471874E-003
          48  9.431056047068513E-004
          49  9.431056055523283E-004
          50  1.886211210257179E-003
Sym=    10a
Ene=  -0.473567188076984     
Spin= Alpha
Occup=     2.00000000
           1 -5.951903985110999E-011
           2 -0.199139560529514     
           3  0.199139560589033     
           4 -3.033163479387254E-015
           5 -1.395258718500095E-014
           6  2.945548295671715E-014
           7 -1.522913492580629E-016
           8 -1.279310358975363E-015
           9 -3.665397054528389E-015
          10 -8.794423152447172E-016
          11  1.448941201454653E-015
          12 -9.766320884175230E-011
          13 -0.326752120259141     
          14  0.326752120356793     
          15 -7.919279005395102E-013
          16 -2.647583625576056E-003
          17  2.647583626367984E-003
          18 -1.633506825230435E-003
          19  1.633506824741778E-003
          20  4.881262694701916E-013
          21 -1.100224778077128E-016
          22  9.765124616658881E-011
          23  0.326752120259127     
          24  0.326752120356818     
          25 -7.908343373743878E-013
          26 -2.647583625576854E-003
          27  2.647583626367689E-003
          28 -1.633506825230298E-003
          29 -1.633506824742643E-003
          30 -4.881995190906534E-013
          31  3.783141657529948E-015
          32  9.759632862758250E-011
          33 -0.326752120259115     
          34 -0.326752120356842     
          35 -7.910335887738808E-013
          36 -2.647583625576479E-003
          37  2.647583626367512E-003
          38  1.633506825230266E-003
          39  1.633506824742883E-003
          40 -4.884554558134465E-013
          41 -4.899139820300092E-015
          42 -9.772850444710976E-011
          43  0.326752120259184     
          44 -0.326752120356755     
          45 -7.916285490867730E-013
          46 -2.647583625576510E-003
          47  2.647583626368138E-003
          48  1.633506825231050E-003
          49 -1.633506824741701E-003
          50  4.879998959639492E-013
Sym=    11a
Ene=  -0.471923161963084     
Spin= Alpha
Occup=     2.00000000
           1 -3.239578328311340E-014
           2  1.613601916896150E-016
           3  3.223442309142378E-014
           4  0.181832000733975     
           5  0.181832000732770     
           6 -4.987067224048479E-002
           7  1.106020658358638E-015
           8  9.944394100559978E-004
           9 -3.625796473445023E-003
          10 -3.625796473469861E-003
          11 -2.183160498345483E-002
          12 -0.260243408813132     
          13 -0.333596540959324     
          14 -0.333596540959655     
          15  3.250954416997676E-003
          16 -1.625477208486186E-003
          17 -1.625477208511490E-003
          18 -2.370782232953462E-003
          19 -2.370782232964770E-003
          20 -4.563227458881569E-003
          21 -3.469662084036181E-003
          22  5.965747172696670E-002
          23 -1.369566041933570E-002
          24 -0.101434187735209     
          25 -6.997212423842315E-004
          26  4.176710383100876E-003
          27 -3.476989140716644E-003
          28  1.070323532477610E-003
          29  2.370782233038147E-003
          30  1.783370071206414E-004
          31 -3.469662083869081E-003
          32  5.965747172485387E-002
          33 -0.101434187732763     
          34 -1.369566042189151E-002
          35 -6.997212424011080E-004
          36 -3.476989140708475E-003
          37  4.176710383109583E-003
          38  2.370782233018476E-003
          39  1.070323532497812E-003
          40  1.783370070892275E-004
          41  2.877092915135841E-002
          42  0.379558352264743     
          43 -0.421335068272750     
          44 -0.421335068273181     
          45 -1.851511932214156E-003
          46  9.257559660942964E-004
          47  9.257559661198598E-004
          48 -3.671240933493899E-003
          49 -3.671240933505507E-003
          50  4.919901473092995E-003
Sym=    12a
Ene=  -0.471923161963083     
Spin= Alpha
Occup=     2.00000000
           1 -1.069284808832619E-014
           2 -1.112491917390552E-014
           3  2.181776726223172E-014
           4  2.460921420015928E-002
           5 -9.157813863793407E-002
           6 -0.244173438422738     
           7 -8.130715766310208E-016
           8  4.868907499089995E-003
           9  1.826101515576533E-003
          10 -4.907167148904582E-004
          11  2.164716877933191E-002
          12  0.351000831058893     
          13  0.302691750087253     
          14  0.265908806942578     
          15  2.956117204051349E-003
          16 -2.554147831383256E-004
          17 -2.700702420913023E-003
          18  4.289631292016186E-003
          19  3.190229184250980E-003
          20  1.746323370746083E-003
          21 -2.507145217436414E-002
          22  0.394296341531509     
          23  0.345987260559855     
          24 -0.324786036158994     
          25 -2.610832306920221E-003
          26  6.006996802694524E-004
          27  2.010132626650769E-003
          28 -4.465635881909311E-003
          29  3.831954376278065E-003
          30  2.388048562773680E-003
          31 -8.904401093396071E-003
          32  0.189885476939564     
          33 -8.359222842236183E-002
          34  0.104793452823141     
          35 -4.241024065437261E-003
          36  2.825228505909041E-003
          37  1.415795559528221E-003
          38  1.901582729192488E-003
          39 -2.535264234822843E-003
          40 -6.417251920788439E-004
          41  1.232868448843021E-002
          42  0.233180987412107     
          43 -0.126887738894898     
          44 -0.163670682039698     
          45  3.895739168305437E-003
          46 -3.170513403040484E-003
          47 -7.252257652649527E-004
          48 -2.077587319083928E-003
          49 -3.176989426850229E-003
          50 -5.127408974754095E-014
Sym=    13a
Ene=  -0.471923161963083     
Spin= Alpha
Occup=     2.00000000
           1  1.188658881369249E-014
           2  6.016542447820244E-015
           3 -1.790313126151273E-014
           4  0.186934071310318     
           5 -0.164813242684711     
           6  8.065410684038267E-002
           7 -1.809650141242366E-015
           8 -1.608272333649968E-003
           9  3.286436225170820E-003
          10 -3.727533623302698E-003
          11 -7.150380789884441E-003
          12 -0.115940778455984     
          13 -3.822998342609432E-002
          14 -0.149587210662542     
          15 -9.764493400697435E-004
          16  4.189674688142049E-003
          17 -3.213225348072305E-003
          18  4.288187115820681E-004
          19 -2.899527523710390E-003
          20 -5.768365004308693E-004
          21 -1.886082099607058E-002
          22  0.212936282642726     
          23  0.290647077672636     
          24 -0.297650156422435     
          25  3.599268218306634E-003
          26 -1.566855809905340E-003
          27 -2.032412408401294E-003
          28 -1.765767315070410E-003
          29  1.975081711366672E-003
          30  4.297772734646165E-003
          31  3.008354905835525E-002
          32 -0.405900198396776     
          33  0.432543551853543     
          34 -0.439546630603234     
          35 -1.335998472502250E-003
          36  4.352209370033805E-004
          37  9.007775354988694E-004
          38 -3.868954023064644E-003
          39  4.078268419360534E-003
          40 -4.874609235076952E-003
          41 -4.072347272398342E-003
          42 -7.702313729798466E-002
          43  0.103666490754763     
          44 -7.690736481618122E-003
          45 -1.286820405733816E-003
          46 -3.058039815240282E-003
          47  4.344860220974098E-003
          48  2.532005419575244E-003
          49 -7.963408157166528E-004
          50 -6.574218979053249E-025
Sym=    14a
Ene=  -0.461710764516520     
Spin= Alpha
Occup=     2.00000000
           1  1.561702662842124E-015
           2 -2.612731865535659E-015
           3  1.051029202693536E-015
           4 -3.234073298687629E-015
           5  4.015497259322146E-015
           6  3.734620281187753E-015
           7 -3.273405280306795E-016
           8 -8.657195669364063E-016
           9  3.653488468505399E-016
          10  1.974780547433419E-015
          11 -1.005430243940971E-015
          12  1.502883082767481E-012
          13 -0.280388706529565     
          14  0.280388706528045     
          15  3.060158622791990E-015
          16 -6.022895064175240E-004
          17  6.022895064144639E-004
          18 -6.152844565636558E-004
          19  6.152844565665380E-004
          20 -3.697741593100932E-015
          21 -5.194364077550070E-016
          22  0.126492909656475     
          23 -0.406881616184533     
          24 -0.280388706528032     
          25 -2.717133406168165E-004
          26  8.740028470309650E-004
          27 -6.022895064141486E-004
          28  6.152844565637004E-004