5
 energy: -20.047547369775 gnorm: 0.031844834754 xtb: 6.2.2 (655bc02)
Ti          0.00000000000000    0.00000000000000    0.00000000000000
Cl          1.26279800000000    1.26279800000000    1.26279800000000
Cl         -1.26279800000000   -1.26279800000000    1.26279800000000
Cl         -1.26279800000000    1.26279800000000   -1.26279800000000
Cl          1.26279800000000   -1.26279800000000   -1.26279800000000
5
 energy: -20.052477338821 gnorm: 0.001472112129 xtb: 6.2.2 (655bc02)
Ti         -0.00000000000000   -0.00000000000000   -0.00000000000000
Cl          1.21726876393346    1.21726876393346    1.21726876393346
Cl         -1.21726876393346   -1.21726876393346    1.21726876393346
Cl         -1.21726876393346    1.21726876393346   -1.21726876393346
Cl          1.21726876393346   -1.21726876393346   -1.21726876393346
5
 energy: -20.052479161263 gnorm: 0.001273711666 xtb: 6.2.2 (655bc02)
Ti          0.00000000000000   -0.00000000000000   -0.00000000000000
Cl          1.22028581034701    1.22028581034701    1.22028581034701
Cl         -1.22028581034701   -1.22028581034701    1.22028581034701
Cl         -1.22028581034701    1.22028581034701   -1.22028581034701
Cl          1.22028581034701   -1.22028581034701   -1.22028581034701
5
 energy: -20.052485054737 gnorm: 0.000011099126 xtb: 6.2.2 (655bc02)
Ti         -0.00000000000000    0.00000000000000    0.00000000000000
Cl          1.21888633824346    1.21888633824346    1.21888633824346
Cl         -1.21888633824346   -1.21888633824346    1.21888633824346
Cl         -1.21888633824346    1.21888633824346   -1.21888633824346
Cl          1.21888633824346   -1.21888633824346   -1.21888633824346
5
 energy: -20.052485054794 gnorm: 0.000000075987 xtb: 6.2.2 (655bc02)
Ti          0.00000000000000   -0.00000000000000   -0.00000000000000
Cl          1.21887403603965    1.21887403603965    1.21887403603965
Cl         -1.21887403603965   -1.21887403603965    1.21887403603965
Cl         -1.21887403603965    1.21887403603965   -1.21887403603965
Cl          1.21887403603965   -1.21887403603965   -1.21887403603965
