      -----------------------------------------------------------      
     |                   =====================                   |     
     |                           x T B                           |     
     |                   =====================                   |     
     |                         S. Grimme                         |     
     |          Mulliken Center for Theoretical Chemistry        |     
     |                    University of Bonn                     |     
      -----------------------------------------------------------      

   * xtb version 6.2.2 (655bc02) compiled by 'ehlert@majestix' on 2019-12-09

   This program is distributed in the hope that it will be useful,
   but WITHOUT ANY WARRANTY; without even the implied warranty of
   MERCHANTABILITY or FITNESS FOR A PARTICULAR PURPOSE.
   
   FOR NON-COMMERCIAL, ACADEMIA USE ONLY.
   
   Cite this work as:
   * S. Grimme, C. Bannwarth, P. Shushkov, J. Chem. Theory Comput., 2017,
     13, 1989-2009. DOI: 10.1021/acs.jctc.7b00118
   * C. Bannwarth, S. Ehlert and S. Grimme., J. Chem. Theory Comput., 2019,
     15, 1652-1671. DOI: 10.1021/acs.jctc.8b01176
   * P. Pracht, E. Caldeweyher, S. Ehlert, S. Grimme, ChemRxiv, 2019, preprint.
     DOI: 10.26434/chemrxiv.8326202.v1
   
   for DFT-D4:
   * E. Caldeweyher, C. Bannwarth and S. Grimme, J. Chem. Phys., 2017,
     147, 034112. DOI: 10.1063/1.4993215
   * E. Caldeweyher, S. Ehlert, A. Hansen, H. Neugebauer, S. Spicher,
     C. Bannwarth and S. Grimme, J. Chem. Phys., 2019, 150, 154122.
     DOI: 10.1063/1.5090222
   
   for sTDA-xTB:
   * S. Grimme and C. Bannwarth, J. Chem. Phys., 2016, 145, 054103.
     DOI: 10.1063/1.4959605
   
   in the mass-spec context:
   * V. Asgeirsson, C. Bauer and S. Grimme, Chem. Sci., 2017, 8, 4879.
     DOI: 10.1039/c7sc00601b
   
   for metadynamics refer to:
   * S. Grimme, J. Chem. Theory Comput., 2019, 155, 2847-2862
     DOI: 10.1021/acs.jctc.9b00143
   
   with help from (in alphabetical order)
   C. Bannwarth, F. Bohle, G. Brandenburg, E. Caldeweyher, M. Checinski,
   S. Dohm, S. Ehlert, S. Ehrlich, F. März, H. Neugebauer, J. Pisarek,
   P. Pracht, P. Shushkov, and S. Spicher.
   
 * started run on 2022/07/20 at 09:54:43.358     

           -------------------------------------------------
          |                Calculation Setup                |
           -------------------------------------------------

          program call               : xtb -c 0 -u 0 input.xyz
          coordinate file            : input.xyz
          omp threads                :                     1
          number of atoms            :                    24
          number of electrons        :                    60
          charge                     :                     0
          spin                       :                   0.0
          first test random number   :      0.30198891631749


molecular fragmentation (1/2 indicates fragments):
111111111111222222222222
# atoms in fragment 1/2:    12    12
 fragment masses (1/2) :       78.11       78.11
CMA distance (Bohr)    :   7.559
constraining FC (au)   :  0.0500

########################################################################
# WARNING! Please study the warnings concerning your input carefully
#  - XTBHOME is not set, using HOME instead
#  - XTBPATH is not set, using XTBHOME instead
########################################################################

           ------------------------------------------------- 
          |                 G F N 2 - x T B                 |
          | Geometry, Frequencies, Noncovalent interactions |
          |            JCTC 2019 parametrisation            |
           ------------------------------------------------- 
             k(s)              :                1.8500
             k(p)              :                2.2300
             k(d)              :                2.2300
             k(f)              :                2.0000
             kEN (H0ij)        :               -2.0000
             D4 a1             :                0.5200
             D4 a2             :                5.0000
             D4 s6             :                1.0000
             D4 s8             :                2.7000
             D4 s9             :                5.0000
             alphaj            :                2.0000

  Z AO/shell   Hii/eV     exponent
  1     Wed Apr 25 08:07:45 CEST 2018   EN: 2.200 GM2: 0.406  GM3: 0.0800  RAES: 1.40
     1s    -10.707211    1.230000
  6     Wed Apr 25 08:07:45 CEST 2018   EN: 2.550 GM2: 0.538  GM3: 0.1500  RAES: 3.00
     2s    -13.970922    2.096432
     2p    -10.063292    1.800000

           ------------------------------------------------- 
          |        Self-Consistent Charge Iterations        |
           ------------------------------------------------- 

          ...................................................
          :                      SETUP                      :
          :.................................................:
          :  # basis functions                  60          :
          :  # atomic orbitals                  60          :
          :  # shells                           36          :
          :  # electrons                        60          :
          :  max. iterations                   250          :
          :  Hamiltonian                  GFN2-xTB          :
          :  restarted?                      false          :
          :  GBSA solvation                  false          :
          :  PC potential                    false          :
          :  electronic temp.          300.0000000     K    :
          :  accuracy                    1.0000000          :
          :  -> integral cutoff          0.2500000E+02      :
          :  -> integral neglect         0.1000000E-07      :
          :  -> SCF convergence          0.1000000E-05 Eh   :
          :  -> wf. convergence          0.1000000E-03 e    :
          :  Broyden damping             0.4000000          :
          ...................................................

 iter      E             dE          RMSdq      gap      omega  full diag
   1    -32.3646485 -0.323646E+02  0.483E+00    4.90       0.0  T
   2    -32.3965301 -0.318816E-01  0.289E+00    4.88       1.0  T
   3    -32.3972942 -0.764087E-03  0.507E-01    4.87       1.0  T
   4    -32.3978777 -0.583487E-03  0.525E-02    4.87       1.0  T
   5    -32.3978778 -0.857335E-07  0.582E-03    4.87       3.5  T
   6    -32.3978778 -0.947956E-08  0.879E-04    4.87      23.2  T
   7    -32.3978778 -0.116223E-09  0.459E-05    4.87     444.4  T

   *** convergence criteria satisfied after 7 iterations ***

         #    Occupation            Energy/Eh            Energy/eV
      -------------------------------------------------------------
         1        2.0000           -0.6391204             -17.3914
       ...           ...                  ...                  ...
        24        2.0000           -0.4199450             -11.4273
        25        2.0000           -0.4196276             -11.4186
        26        2.0000           -0.4196274             -11.4186
        27        2.0000           -0.4015803             -10.9276
        28        2.0000           -0.4015803             -10.9276
        29        2.0000           -0.3992354             -10.8637
        30        2.0000           -0.3992353             -10.8637 (HOMO)
        31                         -0.2202229              -5.9926 (LUMO)
        32                         -0.2202228              -5.9926
        33                         -0.2183201              -5.9408
        34                         -0.2183199              -5.9408
        35                         -0.0888115              -2.4167
       ...                                ...                  ...
        60                          0.6763069              18.4032
      -------------------------------------------------------------
                  HL-Gap            0.1790124 Eh            4.8712 eV
             Fermi-level           -0.3097291 Eh           -8.4282 eV

 SCC (total)                   0 d,  0 h,  0 min,  0.038 sec
 SCC setup                      ...        0 min,  0.000 sec (  0.340%)
 Dispersion                     ...        0 min,  0.000 sec (  0.435%)
 integral evaluation            ...        0 min,  0.005 sec ( 13.845%)
 zeroth order Hamiltonian       ...        0 min,  0.000 sec (  0.234%)
 iterations                     ...        0 min,  0.007 sec ( 18.244%)
 molecular gradient             ...        0 min,  0.018 sec ( 48.129%)
 printout                       ...        0 min,  0.007 sec ( 18.689%)

         :::::::::::::::::::::::::::::::::::::::::::::::::::::
         ::                     SUMMARY                     ::
         :::::::::::::::::::::::::::::::::::::::::::::::::::::
         :: total energy             -31.763711076786 Eh    ::
         :: gradient norm              0.002044847312 Eh/a0 ::
         :: HOMO-LUMO gap              4.871176008733 eV    ::
         ::.................................................::
         :: SCC energy               -32.397877765020 Eh    ::
         :: -> isotropic ES            0.001639087593 Eh    ::
         :: -> anisotropic ES          0.005708956211 Eh    ::
         :: -> anisotropic XC          0.024701406178 Eh    ::
         :: -> dispersion             -0.021372191719 Eh    ::
         :: repulsion energy           0.633690953628 Eh    ::
         :: add. restraining           0.000000000000 Eh    ::
         :::::::::::::::::::::::::::::::::::::::::::::::::::::

           -------------------------------------------------
          |                Property Printout                |
           -------------------------------------------------

    * Orbital Energies and Occupations

         #    Occupation            Energy/Eh            Energy/eV
      -------------------------------------------------------------
         1        2.0000           -0.6391204             -17.3914
       ...           ...                  ...                  ...
        18        2.0000           -0.4747617             -12.9189
        19        2.0000           -0.4744240             -12.9097
        20        2.0000           -0.4744238             -12.9097
        21        2.0000           -0.4737630             -12.8917
        22        2.0000           -0.4712236             -12.8226
        23        2.0000           -0.4199451             -11.4273
        24        2.0000           -0.4199450             -11.4273
        25        2.0000           -0.4196276             -11.4186
        26        2.0000           -0.4196274             -11.4186
        27        2.0000           -0.4015803             -10.9276
        28        2.0000           -0.4015803             -10.9276
        29        2.0000           -0.3992354             -10.8637
        30        2.0000           -0.3992353             -10.8637 (HOMO)
        31                         -0.2202229              -5.9926 (LUMO)
        32                         -0.2202228              -5.9926
        33                         -0.2183201              -5.9408
        34                         -0.2183199              -5.9408
        35                         -0.0888115              -2.4167
        36                         -0.0873904              -2.3780
        37                          0.1181510               3.2151
        38                          0.1207294               3.2852
        39                          0.1385794               3.7709
        40                          0.1396463               3.8000
        41                          0.1740179               4.7353
       ...                                ...                  ...
        60                          0.6763069              18.4032
      -------------------------------------------------------------
                  HL-Gap            0.1790124 Eh            4.8712 eV
             Fermi-level           -0.3097291 Eh           -8.4282 eV

     #   Z        covCN         q      C6AA      α(0)
     1   1 H      0.926     0.028     2.608     2.525
     2   6 C      2.920    -0.028    28.712     8.787
     3   6 C      2.920    -0.028    28.712     8.787
     4   1 H      0.926     0.028     2.608     2.525
     5   6 C      2.920    -0.028    28.712     8.787
     6   1 H      0.926     0.028     2.608     2.525
     7   6 C      2.920    -0.028    28.712     8.787
     8   1 H      0.926     0.028     2.608     2.525
     9   6 C      2.920    -0.028    28.712     8.787
    10   1 H      0.926     0.028     2.608     2.525
    11   6 C      2.920    -0.028    28.712     8.787
    12   1 H      0.926     0.028     2.608     2.525
    13   1 H      0.926     0.028     2.608     2.525
    14   6 C      2.920    -0.028    28.712     8.787
    15   6 C      2.920    -0.028    28.712     8.787
    16   1 H      0.926     0.028     2.608     2.525
    17   6 C      2.920    -0.028    28.712     8.787
    18   1 H      0.926     0.028     2.608     2.525
    19   6 C      2.920    -0.028    28.712     8.787
    20   1 H      0.926     0.028     2.608     2.525
    21   6 C      2.920    -0.028    28.712     8.787
    22   1 H      0.926     0.028     2.608     2.525
    23   6 C      2.920    -0.028    28.712     8.787
    24   1 H      0.926     0.028     2.608     2.525

 Mol. C6AA /au·bohr⁶  :       6998.918501
 Mol. C8AA /au·bohr⁸  :     170654.315637
 Mol. α(0) /au        :        135.748892


Wiberg/Mayer (AO) data.
largest (>0.10) Wiberg bond orders for each atom
          total WBO             WBO to atom ...
     1  H   0.999        C    2 0.972
     2  C   3.993        C    3 1.441    C   11 1.441    H    1 0.972    C    7 0.114
     3  C   3.993        C    2 1.441    C    5 1.441    H    4 0.972    C    9 0.114
     4  H   0.999        C    3 0.972
     5  C   3.993        C    7 1.441    C    3 1.441    H    6 0.972    C   11 0.114
     6  H   0.999        C    5 0.972
     7  C   3.993        C    5 1.441    C    9 1.441    H    8 0.972    C    2 0.114
     8  H   0.999        C    7 0.972
     9  C   3.993        C   11 1.441    C    7 1.441    H   10 0.972    C    3 0.114
    10  H   0.999        C    9 0.972
    11  C   3.993        C    9 1.441    C    2 1.441    H   12 0.972    C    5 0.114
    12  H   0.999        C   11 0.972
    13  H   0.999        C   14 0.972
    14  C   3.993        C   15 1.441    C   23 1.441    H   13 0.972    C   19 0.114
    15  C   3.993        C   14 1.441    C   17 1.441    H   16 0.972    C   21 0.114
    16  H   0.999        C   15 0.972
    17  C   3.993        C   19 1.441    C   15 1.441    H   18 0.972    C   23 0.114
    18  H   0.999        C   17 0.972
    19  C   3.993        C   17 1.441    C   21 1.441    H   20 0.972    C   14 0.114
    20  H   0.999        C   19 0.972
    21  C   3.993        C   23 1.441    C   19 1.441    H   22 0.972    C   15 0.114
    22  H   0.999        C   21 0.972
    23  C   3.993        C   21 1.441    C   14 1.441    H   24 0.972    C   17 0.114
    24  H   0.999        C   23 0.972

molecular dipole:
                 x           y           z       tot (Debye)
 q only:        0.000       0.000      -0.000
   full:        0.000       0.000      -0.000       0.000
molecular quadrupole (traceless):
                xx          xy          yy          xz          yz          zz
 q only:        1.269       0.000       1.269       0.000      -0.000      -2.539
  q+dip:        5.412      -0.000       5.412       0.000      -0.000     -10.825
   full:        2.745      -0.000       2.745       0.000      -0.000      -5.490


           -------------------------------------------------
          | TOTAL ENERGY              -31.763711076786 Eh   |
          | GRADIENT NORM               0.002044847312 Eh/α |
          | HOMO-LUMO GAP               4.871176008733 eV   |
           -------------------------------------------------

------------------------------------------------------------------------
 * finished run on 2022/07/20 at 09:54:43.420     
------------------------------------------------------------------------
 total:
 * wall-time:     0 d,  0 h,  0 min,  0.061 sec
 *  cpu-time:     0 d,  0 h,  0 min,  0.047 sec
 * ratio c/w:     0.767 speedup
 SCF:
 * wall-time:     0 d,  0 h,  0 min,  0.038 sec
 *  cpu-time:     0 d,  0 h,  0 min,  0.031 sec
 * ratio c/w:     0.818 speedup

