      -----------------------------------------------------------      
     |                   =====================                   |     
     |                           x T B                           |     
     |                   =====================                   |     
     |                         S. Grimme                         |     
     |          Mulliken Center for Theoretical Chemistry        |     
     |                    University of Bonn                     |     
      -----------------------------------------------------------      

   * xtb version 6.5.0 (746241f) compiled by 'ehlert@majestix' on 2022-05-15

   xtb is free software: you can redistribute it and/or modify it under
   the terms of the GNU Lesser General Public License as published by
   the Free Software Foundation, either version 3 of the License, or
   (at your option) any later version.
   
   xtb is distributed in the hope that it will be useful,
   but WITHOUT ANY WARRANTY; without even the implied warranty of
   MERCHANTABILITY or FITNESS FOR A PARTICULAR PURPOSE.  See the
   GNU Lesser General Public License for more details.
   
   Cite this work as:
   * C. Bannwarth, E. Caldeweyher, S. Ehlert, A. Hansen, P. Pracht,
     J. Seibert, S. Spicher, S. Grimme, WIREs Comput. Mol. Sci., 2020, 11,
     e01493. DOI: 10.1002/wcms.1493
   
   for GFN2-xTB:
   * C. Bannwarth, S. Ehlert and S. Grimme., J. Chem. Theory Comput., 2019,
     15, 1652-1671. DOI: 10.1021/acs.jctc.8b01176
   for GFN1-xTB:
   * S. Grimme, C. Bannwarth, P. Shushkov, J. Chem. Theory Comput., 2017,
     13, 1989-2009. DOI: 10.1021/acs.jctc.7b00118
   for GFN0-xTB:
   * P. Pracht, E. Caldeweyher, S. Ehlert, S. Grimme, ChemRxiv, 2019, preprint.
     DOI: 10.26434/chemrxiv.8326202.v1
   for GFN-FF:
   * S. Spicher and S. Grimme, Angew. Chem. Int. Ed., 2020, 59, 15665-15673.
     DOI: 10.1002/anie.202004239
   
   for ALPB and GBSA implicit solvation:
   * S. Ehlert, M. Stahn, S. Spicher, S. Grimme, J. Chem. Theory Comput.,
     2021, 17, 4250-4261. DOI: 10.1021/acs.jctc.1c00471
   
   for DFT-D4:
   * E. Caldeweyher, C. Bannwarth and S. Grimme, J. Chem. Phys., 2017,
     147, 034112. DOI: 10.1063/1.4993215
   * E. Caldeweyher, S. Ehlert, A. Hansen, H. Neugebauer, S. Spicher,
     C. Bannwarth and S. Grimme, J. Chem. Phys., 2019, 150, 154122.
     DOI: 10.1063/1.5090222
   * E. Caldeweyher, J.-M. Mewes, S. Ehlert and S. Grimme, Phys. Chem. Chem. Phys.
     2020, 22, 8499-8512. DOI: 10.1039/D0CP00502A
   
   for sTDA-xTB:
   * S. Grimme and C. Bannwarth, J. Chem. Phys., 2016, 145, 054103.
     DOI: 10.1063/1.4959605
   
   in the mass-spec context:
   * V. Asgeirsson, C. Bauer and S. Grimme, Chem. Sci., 2017, 8, 4879.
     DOI: 10.1039/c7sc00601b
   * J. Koopman and S. Grimme, ACS Omega 2019, 4, 12, 15120-15133.
     DOI: 10.1021/acsomega.9b02011
   
   for metadynamics refer to:
   * S. Grimme, J. Chem. Theory Comput., 2019, 155, 2847-2862
     DOI: 10.1021/acs.jctc.9b00143
   
   for SPH calculations refer to:
   * S. Spicher and S. Grimme, J. Chem. Theory Comput., 2021, 17, 1701-1714
     DOI: 10.1021/acs.jctc.0c01306
   
   with help from (in alphabetical order)
   P. Atkinson, C. Bannwarth, F. Bohle, G. Brandenburg, E. Caldeweyher
   M. Checinski, S. Dohm, S. Ehlert, S. Ehrlich, I. Gerasimov, C. Hölzer
   A. Katbashev, J. Koopman, C. Lavigne, S. Lehtola, F. März, M. Müller,
   F. Musil, H. Neugebauer, J. Pisarek, C. Plett, P. Pracht, F. Pultar,
   J. Seibert, P. Shushkov, S. Spicher, M. Stahn, M. Steiner, T. Strunk,
   J. Stückrath, T. Rose, and J. Unsleber
   
 * started run on 2022/07/14 at 15:23:25.247     

           -------------------------------------------------
          |                Calculation Setup                |
           -------------------------------------------------

          program call               : xtb -c 0 -u 0 h4fcl.xyz --opt normal
          coordinate file            : h4fcl.xyz
          omp threads                :                    16

   ID    Z sym.   atoms
    1    6 C      1, 2
    2    1 H      3, 4, 7, 8
    3    9 F      5
    4   17 Cl     6

           -------------------------------------------------
          |                 G F N 2 - x T B                 |
           -------------------------------------------------

        Reference                      10.1021/acs.jctc.8b01176
      * Hamiltonian:
        H0-scaling (s, p, d)           1.850000    2.230000    2.230000
        zeta-weighting                 0.500000
      * Dispersion:
        s8                             2.700000
        a1                             0.520000
        a2                             5.000000
        s9                             5.000000
      * Repulsion:
        kExp                           1.500000    1.000000
        rExp                           1.000000
      * Coulomb:
        alpha                          2.000000
        third order                    shell-resolved
        anisotropic                    true
        a3                             3.000000
        a5                             4.000000
        cn-shift                       1.200000
        cn-exp                         4.000000
        max-rad                        5.000000

q/qsh data taken from xtbrestart
CAMM data taken from xtbrestart

          ...................................................
          :                      SETUP                      :
          :.................................................:
          :  # basis functions                  26          :
          :  # atomic orbitals                  25          :
          :  # shells                           13          :
          :  # electrons                        26          :
          :  max. iterations                   250          :
          :  Hamiltonian                  GFN2-xTB          :
          :  restarted?                       true          :
          :  GBSA solvation                  false          :
          :  PC potential                    false          :
          :  electronic temp.          300.0000000     K    :
          :  accuracy                    1.0000000          :
          :  -> integral cutoff          0.2500000E+02      :
          :  -> integral neglect         0.1000000E-07      :
          :  -> SCF convergence          0.1000000E-05 Eh   :
          :  -> wf. convergence          0.1000000E-03 e    :
          :  Broyden damping             0.4000000          :
          ...................................................

 iter      E             dE          RMSdq      gap      omega  full diag
   1    -15.6788033 -0.156788E+02  0.249E-01    6.77       0.0  T
   2    -15.6788074 -0.411715E-05  0.148E-01    6.78       1.0  T
   3    -15.6788102 -0.277359E-05  0.197E-02    6.78       1.8  T
   4    -15.6788107 -0.498318E-06  0.146E-02    6.79       2.4  T
   5    -15.6788112 -0.476975E-06  0.973E-03    6.79       3.6  T
   6    -15.6788115 -0.360664E-06  0.273E-03    6.79      13.0  T
   7    -15.6788115 -0.167763E-07  0.121E-03    6.79      29.3  T
   8    -15.6788115 -0.287070E-08  0.678E-04    6.79      52.1  T
   9    -15.6788115 -0.912829E-09  0.465E-04    6.79      76.0  T

   *** convergence criteria satisfied after 9 iterations ***

         #    Occupation            Energy/Eh            Energy/eV
      -------------------------------------------------------------
         1        2.0000           -1.0674193             -29.0460
       ...           ...                  ...                  ...
         7        2.0000           -0.5494637             -14.9517
         8        2.0000           -0.5200237             -14.1506
         9        2.0000           -0.5136935             -13.9783
        10        2.0000           -0.4813670             -13.0987
        11        2.0000           -0.4680370             -12.7359
        12        2.0000           -0.4325026             -11.7690
        13        2.0000           -0.4299478             -11.6995 (HOMO)
        14                         -0.1803602              -4.9079 (LUMO)
        15                         -0.0080176              -0.2182
        16                          0.0012469               0.0339
        17                          0.0078427               0.2134
        18                          0.0091024               0.2477
       ...                                ...                  ...
        25                          0.2102860               5.7222
      -------------------------------------------------------------
                  HL-Gap            0.2495876 Eh            6.7916 eV
             Fermi-level           -0.3051540 Eh           -8.3037 eV

 SCC (total)                   0 d,  0 h,  0 min,  0.005 sec
 SCC setup                      ...        0 min,  0.000 sec (  2.275%)
 Dispersion                     ...        0 min,  0.001 sec ( 19.557%)
 classical contributions        ...        0 min,  0.000 sec (  1.329%)
 integral evaluation            ...        0 min,  0.000 sec (  6.928%)
 iterations                     ...        0 min,  0.002 sec ( 47.975%)
 molecular gradient             ...        0 min,  0.001 sec ( 20.631%)
 printout                       ...        0 min,  0.000 sec (  1.094%)

         :::::::::::::::::::::::::::::::::::::::::::::::::::::
         ::                     SUMMARY                     ::
         :::::::::::::::::::::::::::::::::::::::::::::::::::::
         :: total energy             -15.596100888091 Eh    ::
         :: gradient norm              0.031266748150 Eh/a0 ::
         :: HOMO-LUMO gap              6.791623143320 eV    ::
         ::.................................................::
         :: SCC energy               -15.678811543985 Eh    ::
         :: -> isotropic ES            0.017885129943 Eh    ::
         :: -> anisotropic ES          0.000075673705 Eh    ::
         :: -> anisotropic XC          0.000295078740 Eh    ::
         :: -> dispersion             -0.003332660376 Eh    ::
         :: repulsion energy           0.082710061483 Eh    ::
         :: add. restraining           0.000000000000 Eh    ::
         :: total charge               0.000000000000 e     ::
         :::::::::::::::::::::::::::::::::::::::::::::::::::::

      ----------------------------------------------------------- 
     |                   =====================                   |
     |                        A N C O P T                        |
     |                   =====================                   |
     |               Approximate Normal Coordinate               |
     |                Rational Function Optimizer                |
      ----------------------------------------------------------- 

          ...................................................
          :                      SETUP                      :
          :.................................................:
          :   optimization level            normal          :
          :   max. optcycles                   200          :
          :   ANC micro-cycles                  20          :
          :   degrees of freedom                18          :
          :.................................................:
          :   RF solver                   davidson          :
          :   write xtbopt.log                true          :
          :   linear?                        false          :
          :   energy convergence         0.5000000E-05 Eh   :
          :   grad. convergence          0.1000000E-02 Eh/α :
          :   maximium RF displ.         1.0000000          :
          :   Hlow (freq-cutoff)         0.1000000E-01      :
          :   Hmax (freq-cutoff)         5.0000000          :
          :   S6 in model hess.         20.0000000          :
          ...................................................

generating ANC from model Hessian ...
Using Lindh-Hessian (1995)
 Shifting diagonal of input Hessian by   0.000000000000000E+000
 Lowest  eigenvalues of input Hessian
    0.000000    0.000000    0.000000    0.000000    0.000000    0.000000
    0.012337    0.026372    0.035548    0.052080    0.065748    0.067143
    0.089625    0.113462    0.136430    0.142647    0.162696    0.351478
 Highest eigenvalues
    0.629161    0.981360    1.084066    1.089364    1.157431    1.436672
 

........................................................................
.............................. CYCLE    1 ..............................
........................................................................
   1    -15.6788115 -0.156788E+02  0.177E-04    6.79       0.0  T
   2    -15.6788115 -0.305320E-10  0.133E-04    6.79     265.5  T
   3    -15.6788115 -0.296421E-10  0.784E-05    6.79     451.1  T
     SCC iter.                  ...        0 min,  0.001 sec
     gradient                   ...        0 min,  0.001 sec
 * total energy  :   -15.5961009 Eh     change       -0.7202363E-09 Eh
   gradient norm :     0.0312685 Eh/α   predicted     0.0000000E+00 (-100.00%)
   displ. norm   :     0.1011692 α      lambda       -0.2332306E-02
   maximum displ.:     0.0637216 α      in ANC's #12, #4, #10, ...

........................................................................
.............................. CYCLE    2 ..............................
........................................................................
   1    -15.6871756 -0.156872E+02  0.245E-01    6.89       0.0  T
   2    -15.6871801 -0.457789E-05  0.147E-01    6.89       1.0  T
   3    -15.6871831 -0.298526E-05  0.219E-02    6.88       1.6  T
   4    -15.6871838 -0.659059E-06  0.179E-02    6.88       2.0  T
   5    -15.6871846 -0.850219E-06  0.108E-02    6.88       3.3  T
   6    -15.6871850 -0.347620E-06  0.568E-03    6.87       6.2  T
   7    -15.6871851 -0.111989E-06  0.178E-03    6.87      19.8  T
   8    -15.6871851 -0.601038E-08  0.742E-04    6.87      47.6  T
   9    -15.6871851 -0.112355E-08  0.496E-04    6.87      71.2  T
     SCC iter.                  ...        0 min,  0.001 sec
     gradient                   ...        0 min,  0.001 sec
 * total energy  :   -15.5974032 Eh     change       -0.1302302E-02 Eh
   gradient norm :     0.0070655 Eh/α   predicted    -0.1178088E-02 (  -9.54%)
   displ. norm   :     0.0350442 α      lambda       -0.1612859E-03
   maximum displ.:     0.0258092 α      in ANC's #6, #12, #4, ...

........................................................................
.............................. CYCLE    3 ..............................
........................................................................
   1    -15.6900062 -0.156900E+02  0.583E-02    6.87       0.0  T
   2    -15.6900069 -0.706063E-06  0.329E-02    6.87       1.1  T
   3    -15.6900070 -0.385325E-07  0.724E-03    6.87       4.9  T
   4    -15.6900070 -0.766510E-07  0.263E-03    6.87      13.4  T
   5    -15.6900071 -0.860251E-08  0.181E-03    6.87      19.6  T
   6    -15.6900071 -0.808546E-08  0.116E-03    6.87      30.4  T
   7    -15.6900071 -0.584842E-08  0.352E-04    6.87     100.4  T
   8    -15.6900071 -0.252557E-09  0.800E-05    6.87     442.0  T
     SCC iter.                  ...        0 min,  0.001 sec
     gradient                   ...        0 min,  0.001 sec
 * total energy  :   -15.5974780 Eh     change       -0.7484628E-04 Eh
   gradient norm :     0.0013466 Eh/α   predicted    -0.8074094E-04 (   7.88%)
   displ. norm   :     0.0056164 α      lambda       -0.3211856E-05
   maximum displ.:     0.0030750 α      in ANC's #12, #6, #2, ...

........................................................................
.............................. CYCLE    4 ..............................
........................................................................
   1    -15.6897060 -0.156897E+02  0.109E-02    6.86       0.0  T
   2    -15.6897060 -0.546568E-08  0.657E-03    6.86       5.4  T
   3    -15.6897060 -0.419511E-08  0.804E-04    6.86      44.0  T
   4    -15.6897060 -0.815016E-09  0.651E-04    6.86      54.3  T
     SCC iter.                  ...        0 min,  0.000 sec
     gradient                   ...        0 min,  0.001 sec
 * total energy  :   -15.5974803 Eh     change       -0.2263864E-05 Eh
   gradient norm :     0.0004362 Eh/α   predicted    -0.1606334E-05 ( -29.04%)
   displ. norm   :     0.0021218 α      lambda       -0.3820435E-06
   maximum displ.:     0.0015520 α      in ANC's #6, #2, #16, ...

   *** GEOMETRY OPTIMIZATION CONVERGED AFTER 4 ITERATIONS ***

------------------------------------------------------------------------
 total energy gain   :        -0.0013794 Eh       -0.8656 kcal/mol
 total RMSD          :         0.0367055 a0        0.0194 Å
 total power (kW/mol):        -0.9054119 (step) -390.8073 (real)
------------------------------------------------------------------------

 ANCopt (total)                0 d,  0 h,  0 min,  0.009 sec
 optimizer setup                ...        0 min,  0.000 sec (  0.496%)
 model hessian                  ...        0 min,  0.001 sec (  5.434%)
 ANC generation                 ...        0 min,  0.000 sec (  0.938%)
 coordinate transformation      ...        0 min,  0.000 sec (  0.144%)
 single point calculation       ...        0 min,  0.008 sec ( 88.422%)
 optimization log               ...        0 min,  0.000 sec (  1.560%)
 hessian update                 ...        0 min,  0.000 sec (  0.172%)
 rational function              ...        0 min,  0.000 sec (  1.478%)

================
 final structure:
================
8
 xtb: 6.5.0 (746241f)
C           -0.92024323791323        0.69551654207148       -0.02723379156804
C            0.56321328888595        1.03023069392945       -0.00434470547051
H            0.81883148724180        1.77144939440272       -0.76802546851254
H            0.88000030557759        1.38060233725830        0.98299498862612
F            1.28305184308059       -0.10341745479426       -0.28253386502180
Cl          -1.85428983007669        2.16319001780840        0.33298314367737
H           -1.22189764067717        0.33697400205985       -1.01193539471650
H           -1.16106621611883       -0.05174553273595        0.72959509298590
 
 Bond Distances (Angstroems)
 ---------------------------
C1-C2=1.5209         C1-Cl6=1.7766        C1-H7=1.0905         C1-H8=1.0905         C2-C1=1.5209         C2-H3=1.0945         
C2-H4=1.0945         C2-F5=1.3714         H3-C2=1.0945         H4-C2=1.0945         F5-C2=1.3714         Cl6-C1=1.7766        
H7-C1=1.0905         H8-C1=1.0905         
 C  H  Rav=1.0925 sigma=0.0020  Rmin=1.0905  Rmax=1.0945     4
 C  C  Rav=1.5209 sigma=0.0000  Rmin=1.5209  Rmax=1.5209     1
 F  C  Rav=1.3714 sigma=0.0000  Rmin=1.3714  Rmax=1.3714     1
 Cl C  Rav=1.7766 sigma=0.0000  Rmin=1.7766  Rmax=1.7766     1
 
 selected bond angles (degree)
 --------------------
Cl6-C1-C2=109.14               H7-C1-C2=110.84                H7-C1-Cl6=108.02               H8-C1-C2=110.84                
H8-C1-Cl6=108.02               H8-C1-H7=109.90                H3-C2-C1=111.49                H4-C2-C1=111.49                
H4-C2-H3=110.18                F5-C2-C1=109.09                F5-C2-H3=107.20                F5-C2-H4=107.20                
 
 selected dihedral angles (degree)
 ---------------------------------
H3-C2-C1-Cl6=298.20           H3-C2-C1-H7= 57.04            H3-C2-C1-H8=179.35            H4-C2-C1-Cl6= 61.80           
H4-C2-C1-H7=180.65            H4-C2-C1-H8=302.96            F5-C2-C1-Cl6=180.00           F5-C2-C1-H7=298.84            
F5-C2-C1-H8= 61.16            
           -------------------------------------------------
          |                Final Singlepoint                |
           -------------------------------------------------

          ...................................................
          :                      SETUP                      :
          :.................................................:
          :  # basis functions                  26          :
          :  # atomic orbitals                  25          :
          :  # shells                           13          :
          :  # electrons                        26          :
          :  max. iterations                   250          :
          :  Hamiltonian                  GFN2-xTB          :
          :  restarted?                      false          :
          :  GBSA solvation                  false          :
          :  PC potential                    false          :
          :  electronic temp.          300.0000000     K    :
          :  accuracy                    1.0000000          :
          :  -> integral cutoff          0.2500000E+02      :
          :  -> integral neglect         0.1000000E-07      :
          :  -> SCF convergence          0.1000000E-05 Eh   :
          :  -> wf. convergence          0.1000000E-03 e    :
          :  Broyden damping             0.4000000          :
          ...................................................

 iter      E             dE          RMSdq      gap      omega  full diag
   1    -15.6897060 -0.156897E+02  0.376E-04    6.86       0.0  T
   2    -15.6897060 -0.158996E-09  0.314E-04    6.86     112.6  T
   3    -15.6897060 -0.269736E-09  0.193E-04    6.86     182.9  T

   *** convergence criteria satisfied after 3 iterations ***

         #    Occupation            Energy/Eh            Energy/eV
      -------------------------------------------------------------
         1        2.0000           -1.0675768             -29.0502
       ...           ...                  ...                  ...
         7        2.0000           -0.5526722             -15.0390
         8        2.0000           -0.5230418             -14.2327
         9        2.0000           -0.5138474             -13.9825
        10        2.0000           -0.4819864             -13.1155
        11        2.0000           -0.4685707             -12.7505
        12        2.0000           -0.4321592             -11.7597
        13        2.0000           -0.4297566             -11.6943 (HOMO)
        14                         -0.1774747              -4.8293 (LUMO)
        15                         -0.0048342              -0.1315
        16                          0.0031273               0.0851
        17                          0.0081271               0.2212
        18                          0.0091813               0.2498
       ...                                ...                  ...
        25                          0.2453481               6.6763
      -------------------------------------------------------------
                  HL-Gap            0.2522819 Eh            6.8649 eV
             Fermi-level           -0.3036157 Eh           -8.2618 eV

 SCC (total)                   0 d,  0 h,  0 min,  0.001 sec
 SCC setup                      ...        0 min,  0.000 sec (  3.600%)
 Dispersion                     ...        0 min,  0.000 sec (  1.106%)
 classical contributions        ...        0 min,  0.000 sec (  0.413%)
 integral evaluation            ...        0 min,  0.000 sec ( 26.255%)
 iterations                     ...        0 min,  0.000 sec ( 24.868%)
 molecular gradient             ...        0 min,  0.001 sec ( 39.333%)
 printout                       ...        0 min,  0.000 sec (  3.666%)

         :::::::::::::::::::::::::::::::::::::::::::::::::::::
         ::                     SUMMARY                     ::
         :::::::::::::::::::::::::::::::::::::::::::::::::::::
         :: total energy             -15.597480302472 Eh    ::
         :: gradient norm              0.000446562405 Eh/a0 ::
         :: HOMO-LUMO gap              6.864939863256 eV    ::
         ::.................................................::
         :: SCC energy               -15.689706016731 Eh    ::
         :: -> isotropic ES            0.018093927723 Eh    ::
         :: -> anisotropic ES         -0.000144005070 Eh    ::
         :: -> anisotropic XC         -0.000374249238 Eh    ::
         :: -> dispersion             -0.003332824213 Eh    ::
         :: repulsion energy           0.092225141611 Eh    ::
         :: add. restraining           0.000000000000 Eh    ::
         :: total charge              -0.000000000000 e     ::
         :::::::::::::::::::::::::::::::::::::::::::::::::::::

           -------------------------------------------------
          |                Property Printout                |
           -------------------------------------------------

    * Orbital Energies and Occupations

         #    Occupation            Energy/Eh            Energy/eV
      -------------------------------------------------------------
         1        2.0000           -1.0675768             -29.0502
         2        2.0000           -0.8254532             -22.4617
         3        2.0000           -0.6648725             -18.0921
         4        2.0000           -0.6198762             -16.8677
         5        2.0000           -0.5744333             -15.6311
         6        2.0000           -0.5657202             -15.3940
         7        2.0000           -0.5526722             -15.0390
         8        2.0000           -0.5230418             -14.2327
         9        2.0000           -0.5138474             -13.9825
        10        2.0000           -0.4819864             -13.1155
        11        2.0000           -0.4685707             -12.7505
        12        2.0000           -0.4321592             -11.7597
        13        2.0000           -0.4297566             -11.6943 (HOMO)
        14                         -0.1774747              -4.8293 (LUMO)
        15                         -0.0048342              -0.1315
        16                          0.0031273               0.0851
        17                          0.0081271               0.2212
        18                          0.0091813               0.2498
        19                          0.0285804               0.7777
        20                          0.0863917               2.3508
        21                          0.1206040               3.2818
        22                          0.1386650               3.7733
        23                          0.1458507               3.9688
        24                          0.1544926               4.2040
        25                          0.2453481               6.6763
      -------------------------------------------------------------
                  HL-Gap            0.2522819 Eh            6.8649 eV
             Fermi-level           -0.3036157 Eh           -8.2618 eV

     #   Z          covCN         q      C6AA      α(0)
     1   6 C        3.714     0.019    20.380     6.450
     2   6 C        3.646     0.104    19.183     6.294
     3   1 H        0.924     0.071     2.071     2.251
     4   1 H        0.924     0.071     2.071     2.251
     5   9 F        0.784    -0.245    11.707     4.042
     6  17 Cl       0.928    -0.188   105.058    15.681
     7   1 H        0.925     0.084     1.942     2.179
     8   1 H        0.925     0.084     1.942     2.179

 Mol. C6AA /au·bohr⁶  :        790.720321
 Mol. C8AA /au·bohr⁸  :      21731.171325
 Mol. α(0) /au        :         41.326191


Wiberg/Mayer (AO) data.
largest (>0.10) Wiberg bond orders for each atom

 ---------------------------------------------------------------------------
     #   Z sym  total        # sym  WBO       # sym  WBO       # sym  WBO
 ---------------------------------------------------------------------------
     1   6 C    3.939 --     2 C    1.007     7 H    0.976     8 H    0.976
                             6 Cl   0.961
     2   6 C    3.901 --     1 C    1.007     4 H    0.969     3 H    0.969
                             5 F    0.942
     3   1 H    0.995 --     2 C    0.969
     4   1 H    0.995 --     2 C    0.969
     5   9 F    1.006 --     2 C    0.942
     6  17 Cl   1.003 --     1 C    0.961
     7   1 H    0.993 --     1 C    0.976
     8   1 H    0.993 --     1 C    0.976
 ---------------------------------------------------------------------------

Topologies differ in total number of bonds
Writing topology from bond orders to xtbtopo.mol

molecular dipole:
                 x           y           z       tot (Debye)
 q only:       -0.004      -0.024      -0.005
   full:       -0.083       0.075       0.020       0.290
molecular quadrupole (traceless):
                xx          xy          yy          xz          yz          zz
 q only:       -2.012       5.335      -0.587       1.363      -0.940       2.599
  q+dip:       -2.868       7.014      -1.466       1.884      -1.687       4.335
   full:       -2.642       6.021      -0.702       1.616      -1.236       3.343

           -------------------------------------------------
          |                Geometry Summary                 |
           -------------------------------------------------

      molecular mass/u    :       82.5045755
   center of mass at/Å    :       -0.5616882       1.1989487       0.0726063
  moments of inertia/u·Å² :        0.1677133E+02   0.2113286E+03   0.2216387E+03
rotational constants/cm⁻¹ :        0.1005146E+01   0.7976978E-01   0.7605907E-01

 * 7 selected distances

     #   Z          #   Z                                           value/Å
     1   6 C        2   6 C                                       1.5209212
     2   6 C        3   1 H                                       1.0945110
     2   6 C        4   1 H                                       1.0945109
     2   6 C        5   9 F                                       1.3713917
     1   6 C        6  17 Cl                                      1.7765881 (max)
     1   6 C        7   1 H                                       1.0904979 (min)
     1   6 C        8   1 H                                       1.0904983

 * 4 distinct bonds (by element types)

   Z      Z             #   av. dist./Å        max./Å        min./Å
   1 H    6 C           4     1.0925045     1.0945110     1.0904979
   6 C    6 C           1     1.5209212     1.5209212     1.5209212
   6 C    9 F           1     1.3713917     1.3713917     1.3713917
   6 C   17 Cl          1     1.7765881     1.7765881     1.7765881


optimized geometry written to: xtbopt.xyz


           -------------------------------------------------
          | TOTAL ENERGY              -15.597480302472 Eh   |
          | GRADIENT NORM               0.000446562405 Eh/α |
          | HOMO-LUMO GAP               6.864939863256 eV   |
           -------------------------------------------------
########################################################################
[WARNING] Runtime exception occurred
-1- restart_readRestart: Number of electron missmatch in restart file.
########################################################################

------------------------------------------------------------------------
 * finished run on 2022/07/14 at 15:23:25.277     
------------------------------------------------------------------------
 total:
 * wall-time:     0 d,  0 h,  0 min,  0.029 sec
 *  cpu-time:     0 d,  0 h,  0 min,  0.420 sec
 * ratio c/w:    14.439 speedup
 SCF:
 * wall-time:     0 d,  0 h,  0 min,  0.005 sec
 *  cpu-time:     0 d,  0 h,  0 min,  0.065 sec
 * ratio c/w:    13.851 speedup
 ANC optimizer:
 * wall-time:     0 d,  0 h,  0 min,  0.011 sec
 *  cpu-time:     0 d,  0 h,  0 min,  0.172 sec
 * ratio c/w:    15.484 speedup

