8
 energy: -15.596100888811 gnorm: 0.031268477908 xtb: 6.5.0 (746241f)
C           -0.92000000000000        0.70870000000000       -0.02430000000000
C            0.56980000000000        1.01750000000000       -0.00740000000000
H            0.80640000000000        1.78820000000000       -0.77130000000000
H            0.86810000000000        1.39420000000000        0.99390000000000
F            1.28690000000000       -0.13080000000000       -0.28880000000000
Cl          -1.85720000000000        2.18000000000000        0.33680000000000
H           -1.21400000000000        0.32940000000000       -1.02570000000000
H           -1.15240000000000       -0.06440000000000        0.73830000000000
8
 energy: -15.597403190621 gnorm: 0.007065668511 xtb: 6.5.0 (746241f)
C           -0.92059016795273        0.69607937179199       -0.02710191671471
C            0.56379893578778        1.03057837728575       -0.00428679791311
H            0.82379603436349        1.77768875869753       -0.76682589087961
H            0.88496181800893        1.38682779771812        0.98423143902916
F            1.28129066820770       -0.10601048104506       -0.28305617236666
Cl          -1.85241161289637        2.16382483104967        0.33305827874207
H           -1.22705761931258        0.33140925162109       -1.01367561719691
H           -1.16618805620622       -0.05759790711910        0.72915667729977
8
 energy: -15.597478036902 gnorm: 0.001346630636 xtb: 6.5.0 (746241f)
C           -0.92009596282105        0.69672809789469       -0.02697117870743
C            0.56244273559449        1.02988550762773       -0.00439433185379
H            0.81861926418604        1.77050302629276       -0.76828058161573
H            0.87979063190337        1.37963078647120        0.98283899564913
F            1.28271887440540       -0.10291259821058       -0.28240994535558
Cl          -1.85500702266462        2.16271502175607        0.33290274303759
H           -1.22083228972096        0.33735412855204       -1.01128808747375
H           -1.16003623088269       -0.05110397038391        0.72910238631955
8
 energy: -15.597480300766 gnorm: 0.000436244452 xtb: 6.5.0 (746241f)
C           -0.92024323791323        0.69551654207148       -0.02723379156804
C            0.56321328888595        1.03023069392945       -0.00434470547051
H            0.81883148724180        1.77144939440272       -0.76802546851254
H            0.88000030557759        1.38060233725830        0.98299498862612
F            1.28305184308059       -0.10341745479426       -0.28253386502180
Cl          -1.85428983007669        2.16319001780840        0.33298314367737
H           -1.22189764067717        0.33697400205985       -1.01193539471650
H           -1.16106621611883       -0.05174553273595        0.72959509298590
