[Molden Format]
[Title]
[Atoms] AU
C      1     6 -0.23391230030531E+01 -0.26304099369850E+01 -0.90359770179673E-02
C      2     6 -0.52550795850848E-02 -0.13425863130612E+01 -0.78454567949611E-02
C      3     6  0.23275111004594E+01 -0.26324030490146E+01 -0.72602973065461E-02
C      4     6  0.45570331670538E+01 -0.13295821641002E+01 -0.61068878876180E-02
C      5     6  0.45581662218165E+01  0.13234382536212E+01 -0.54567697259523E-02
C      6     6  0.23297577469740E+01  0.26281631144148E+01 -0.60073011450539E-02
C      7     6 -0.41091471933230E-02  0.13403395201473E+01 -0.72327408920679E-02
C      8     6 -0.23368761423515E+01  0.26301566126119E+01 -0.78917785950104E-02
C      9     6 -0.45663975934391E+01  0.13273361669171E+01 -0.90907371325717E-02
C     10     6 -0.45675308263836E+01 -0.13256853427217E+01 -0.96393946731525E-02
H     11     1 -0.23304658493833E+01 -0.46732954392624E+01 -0.95079981735628E-02
H     12     1  0.23171105955409E+01 -0.46752802804636E+01 -0.77217233877589E-02
H     13     1  0.63364830281462E+01 -0.23305258580919E+01 -0.56445406915716E-02
H     14     1  0.63384708198437E+01  0.23228603920060E+01 -0.45218149968585E-02
H     15     1  0.23211021288367E+01  0.46710485250296E+01 -0.55293682138234E-02
H     16     1 -0.23264742208401E+01  0.46730339470130E+01 -0.74048885891712E-02
H     17     1 -0.63458485446606E+01  0.23282779810547E+01 -0.95738081550769E-02
H     18     1 -0.63478361869395E+01 -0.23251061986485E+01 -0.10588797593947E-01
[GTO]
           1 0
 s           4   1.00000000000000     
   51.0493630955799      -0.163120632101274     
   8.79112274068875      -0.199110245810007     
  0.706404222589298       0.318820477536558     
  0.269228134134116       0.127065041842404     
 p           4   1.00000000000000     
   5.82636561408000       0.737164515452096     
   1.51068960187200       0.682163716148503     
  0.532564832880000       0.357830539292537     
  0.212023236906000       5.398303027584788E-002
 
           2 0
 s           4   1.00000000000000     
   51.0493630955799      -0.163120632101274     
   8.79112274068875      -0.199110245810007     
  0.706404222589298       0.318820477536558     
  0.269228134134116       0.127065041842404     
 p           4   1.00000000000000     
   5.82636561408000       0.737164515452096     
   1.51068960187200       0.682163716148503     
  0.532564832880000       0.357830539292537     
  0.212023236906000       5.398303027584788E-002
 
           3 0
 s           4   1.00000000000000     
   51.0493630955799      -0.163120632101274     
   8.79112274068875      -0.199110245810007     
  0.706404222589298       0.318820477536558     
  0.269228134134116       0.127065041842404     
 p           4   1.00000000000000     
   5.82636561408000       0.737164515452096     
   1.51068960187200       0.682163716148503     
  0.532564832880000       0.357830539292537     
  0.212023236906000       5.398303027584788E-002
 
           4 0
 s           4   1.00000000000000     
   51.0493630955799      -0.163120632101274     
   8.79112274068875      -0.199110245810007     
  0.706404222589298       0.318820477536558     
  0.269228134134116       0.127065041842404     
 p           4   1.00000000000000     
   5.82636561408000       0.737164515452096     
   1.51068960187200       0.682163716148503     
  0.532564832880000       0.357830539292537     
  0.212023236906000       5.398303027584788E-002
 
           5 0
 s           4   1.00000000000000     
   51.0493630955799      -0.163120632101274     
   8.79112274068875      -0.199110245810007     
  0.706404222589298       0.318820477536558     
  0.269228134134116       0.127065041842404     
 p           4   1.00000000000000     
   5.82636561408000       0.737164515452096     
   1.51068960187200       0.682163716148503     
  0.532564832880000       0.357830539292537     
  0.212023236906000       5.398303027584788E-002
 
           6 0
 s           4   1.00000000000000     
   51.0493630955799      -0.163120632101274     
   8.79112274068875      -0.199110245810007     
  0.706404222589298       0.318820477536558     
  0.269228134134116       0.127065041842404     
 p           4   1.00000000000000     
   5.82636561408000       0.737164515452096     
   1.51068960187200       0.682163716148503     
  0.532564832880000       0.357830539292537     
  0.212023236906000       5.398303027584788E-002
 
           7 0
 s           4   1.00000000000000     
   51.0493630955799      -0.163120632101274     
   8.79112274068875      -0.199110245810007     
  0.706404222589298       0.318820477536558     
  0.269228134134116       0.127065041842404     
 p           4   1.00000000000000     
   5.82636561408000       0.737164515452096     
   1.51068960187200       0.682163716148503     
  0.532564832880000       0.357830539292537     
  0.212023236906000       5.398303027584788E-002
 
           8 0
 s           4   1.00000000000000     
   51.0493630955799      -0.163120632101274     
   8.79112274068875      -0.199110245810007     
  0.706404222589298       0.318820477536558     
  0.269228134134116       0.127065041842404     
 p           4   1.00000000000000     
   5.82636561408000       0.737164515452096     
   1.51068960187200       0.682163716148503     
  0.532564832880000       0.357830539292537     
  0.212023236906000       5.398303027584788E-002
 
           9 0
 s           4   1.00000000000000     
   51.0493630955799      -0.163120632101274     
   8.79112274068875      -0.199110245810007     
  0.706404222589298       0.318820477536558     
  0.269228134134116       0.127065041842404     
 p           4   1.00000000000000     
   5.82636561408000       0.737164515452096     
   1.51068960187200       0.682163716148503     
  0.532564832880000       0.357830539292537     
  0.212023236906000       5.398303027584788E-002
 
          10 0
 s           4   1.00000000000000     
   51.0493630955799      -0.163120632101274     
   8.79112274068875      -0.199110245810007     
  0.706404222589298       0.318820477536558     
  0.269228134134116       0.127065041842404     
 p           4   1.00000000000000     
   5.82636561408000       0.737164515452096     
   1.51068960187200       0.682163716148503     
  0.532564832880000       0.357830539292537     
  0.212023236906000       5.398303027584788E-002
 
          11 0
 s           3   1.00000000000000     
   3.37022769753360       0.273591105889083     
  0.613891182214980       0.264605406538605     
  0.166142911484160       8.246594753408230E-002
 
          12 0
 s           3   1.00000000000000     
   3.37022769753360       0.273591105889083     
  0.613891182214980       0.264605406538605     
  0.166142911484160       8.246594753408230E-002
 
          13 0
 s           3   1.00000000000000     
   3.37022769753360       0.273591105889083     
  0.613891182214980       0.264605406538605     
  0.166142911484160       8.246594753408230E-002
 
          14 0
 s           3   1.00000000000000     
   3.37022769753360       0.273591105889083     
  0.613891182214980       0.264605406538605     
  0.166142911484160       8.246594753408230E-002
 
          15 0
 s           3   1.00000000000000     
   3.37022769753360       0.273591105889083     
  0.613891182214980       0.264605406538605     
  0.166142911484160       8.246594753408230E-002
 
          16 0
 s           3   1.00000000000000     
   3.37022769753360       0.273591105889083     
  0.613891182214980       0.264605406538605     
  0.166142911484160       8.246594753408230E-002
 
          17 0
 s           3   1.00000000000000     
   3.37022769753360       0.273591105889083     
  0.613891182214980       0.264605406538605     
  0.166142911484160       8.246594753408230E-002
 
          18 0
 s           3   1.00000000000000     
   3.37022769753360       0.273591105889083     
  0.613891182214980       0.264605406538605     
  0.166142911484160       8.246594753408230E-002
 
[MO]
Sym=     1a
Ene=  -0.647641463163941     
Spin= Alpha
Occup=     2.00000000
           1 -0.193493598696179     
           2 -3.429806154755463E-002
           3 -7.457782720664240E-002
           4 -2.912228463115933E-005
           5 -0.330979321894572     
           6 -2.282928335139272E-005
           7 -5.303549093863553E-002
           8 -1.147284966265368E-005
           9 -0.193494002857877     
          10  3.423432551918982E-002
          11 -7.460725531862561E-002
          12 -4.498488733865856E-006
          13 -0.150877499728154     
          14  6.238203506402457E-002
          15 -2.702045939889267E-002
          16  1.697152715232484E-005
          17 -0.150877535209315     
          18  6.240511212909357E-002
          19  2.696713835617408E-002
          20  3.079980884162191E-005
          21 -0.193494092953501     
          22  3.429803855828011E-002
          23  7.457799689227995E-002
          24  3.159450173410082E-005
          25 -0.330979403315012     
          26  2.247308225369556E-005
          27  5.303544446777504E-002
          28  1.282571963444932E-005
          29 -0.193493664547826     
          30 -3.423437451969058E-002
          31  7.460711257260916E-002
          32  2.704409607299619E-006
          33 -0.150877051562810     
          34 -6.238191990844043E-002
          35  2.702033602406772E-002
          36 -1.999202935033058E-005
          37 -0.150877035555419     
          38 -6.240496982659374E-002
          39 -2.696703863603070E-002
          40 -3.020653530147304E-005
          41 -3.380083816105759E-002
          42 -3.380089748529821E-002
          43 -2.294377573729618E-002
          44 -2.294378491825850E-002
          45 -3.380091807077278E-002
          46 -3.380085449697819E-002
          47 -2.294369595735885E-002
          48 -2.294369453855196E-002
Sym=     2a
Ene=  -0.636681835453134     
Spin= Alpha
Occup=     2.00000000
           1  0.190284810483392     
           2 -5.036973147363692E-002
           3  6.607737328320208E-002
           4 -5.995216070767494E-006
           5  3.662216628510929E-007
           6 -0.136214613354086     
           7  5.822383839943050E-005
           8 -5.288367702972351E-005
           9 -0.190284248988430     
          10 -5.042622039527714E-002
          11 -6.603414205701977E-002
          12 -3.509996183777961E-005
          13 -0.254385686102748     
          14  6.371730223067520E-002
          15 -4.588088789975953E-002
          16  1.255802818764042E-005
          17 -0.254385760262311     
          18  6.375650247088577E-002
          19  4.582639988237625E-002
          20  3.588325237958402E-005
          21 -0.190284386099831     
          22 -5.036982309177776E-002
          23  6.607721912993966E-002
          24 -3.664075343131770E-006
          25  3.027564019858887E-007
          26 -0.136214644445130     
          27  5.811927121811164E-005
          28 -5.407293735397476E-005
          29  0.190284783234617     
          30 -5.042616524610696E-002
          31 -6.603431336710423E-002
          32 -3.471482558262218E-005
          33  0.254385982549844     
          34  6.371747479003369E-002
          35 -4.588085789421557E-002
          36  1.702268014261041E-005
          37  0.254385991895411     
          38  6.375665600288989E-002
          39  4.582639936023717E-002
          40  3.456188182140003E-005
          41  3.423677117809527E-002
          42 -3.423667430528814E-002
          43 -5.081921948847861E-002
          44 -5.081924366837701E-002
          45 -3.423670768911770E-002
          46  3.423676578090140E-002
          47  5.081926885241146E-002
          48  5.081927385264189E-002
Sym=     3a
Ene=  -0.621196645392896     
Spin= Alpha
Occup=     2.00000000
           1 -0.264189406007371     
           2 -4.660969802788087E-002
           3 -1.853516813089126E-002
           4 -2.119649735748105E-005
           5 -0.242736435654128     
           6  6.164036105500404E-005
           7  0.144582564820963     
           8  3.354339919030550E-005
           9 -0.264189657707928     
          10  4.659388779232582E-002
          11 -1.857500731280546E-002
          12  1.313691786664335E-005
          13 -0.102060705766617     
          14  5.420545734953722E-002
          15  6.223180752977284E-002
          16  3.514492223759739E-005
          17  0.102060545352257     
          18 -5.415225942856743E-002
          19  6.227812291535079E-002
          20 -6.324713806647181E-006
          21  0.264189565661867     
          22 -4.660976041217365E-002
          23 -1.853514311432159E-002
          24 -2.350270975543385E-005
          25  0.242736357853727     
          26  6.179181231624302E-005
          27  0.144582623986715     
          28  3.235989736664241E-005
          29  0.264189447624514     
          30  4.659385737133539E-002
          31 -1.857496782940123E-002
          32  1.494248321477455E-005
          33  0.102060596054783     
          34  5.420544457074885E-002
          35  6.223179049253894E-002
          36  3.597959862722872E-005
          37 -0.102060628193173     
          38 -5.415226481950491E-002
          39  6.227805129173321E-002
          40 -7.632088701189788E-006
          41 -8.185595856414092E-002
          42 -8.185601820343284E-002
          43 -2.749899748989994E-002
          44  2.749894560951962E-002
          45  8.185600683450735E-002
          46  8.185597778652966E-002
          47  2.749892965566475E-002
          48 -2.749893418803095E-002
Sym=     4a
Ene=  -0.612544163258558     
Spin= Alpha
Occup=     2.00000000
           1 -1.938681386915897E-003
           2  0.139558667709875     
           3 -1.020955678652521E-002
           4  5.313849555240275E-005
           5  0.249634143046838     
           6  1.712109971786645E-005
           7  3.971864466872654E-002
           8  9.347588182964484E-006
           9 -1.938097828614793E-003
          10 -0.139567302548354     
          11 -1.009023379167544E-002
          12 -5.577569695776783E-005
          13 -0.276750732824214     
          14 -1.349475003313579E-002
          15 -6.772157099876330E-002
          16 -2.236104033972536E-005
          17 -0.276750996727721     
          18 -1.343681189027670E-002
          19  6.773292891130456E-002
          20  1.132272112625418E-005
          21 -1.938471060632442E-003
          22 -0.139558734800253     
          23  1.020949980632952E-002
          24 -5.185965770538181E-005
          25  0.249634125619326     
          26 -1.696283625715689E-005
          27 -3.971865628894024E-002
          28 -8.842066458313107E-006
          29 -1.938409265554816E-003
          30  0.139567273069835     
          31  1.009028882169334E-002
          32  5.853863857494759E-005
          33 -0.276750590881235     
          34  1.349463578330348E-002
          35  6.772140106643887E-002
          36  1.871477494911664E-005
          37 -0.276750779091327     
          38  1.343670737278061E-002
          39 -6.773280311760690E-002
          40 -8.293085052643930E-006
          41  3.961398840580303E-003
          42  3.961509922025255E-003
          43 -8.649724708978650E-002
          44 -8.649735329455932E-002
          45  3.961400196776899E-003
          46  3.961471025548471E-003
          47 -8.649722021419788E-002
          48 -8.649728685859205E-002
Sym=     5a
Ene=  -0.605661792298011     
Spin= Alpha
Occup=     2.00000000
           1  0.260012366820387     
           2 -6.735744466604196E-002
           3  2.032814020182468E-002
           4 -2.255862927017593E-005
           5  1.018062893313729E-007
           6 -0.119777339895811     
           7  5.119136892140913E-005
           8 -4.523214436233582E-005
           9 -0.260012159154527     
          10 -6.737484127735789E-002
          11 -2.027058307800502E-002
          12 -3.055557306014257E-005
          13 -0.184030011970244     
          14  6.283851710914271E-002
          15  0.108833845714087     
          16  4.946915640826874E-005
          17  0.184029582928027     
          18 -6.274557285135615E-002
          19  0.108887593910047     
          20  1.741809094315963E-006
          21  0.260012157708723     
          22  6.735732309549856E-002
          23 -2.032809134748668E-002
          24  2.137895962960000E-005
          25  1.774239685015628E-007
          26  0.119777325692026     
          27 -5.115232383042667E-005
          28  4.881997853406609E-005
          29 -0.260012352938009     
          30  6.737495058994807E-002
          31  2.027059586210189E-002
          32  3.176659442844888E-005
          33 -0.184030184020365     
          34 -6.283861009991475E-002
          35 -0.108833948165722     
          36 -4.976265579550345E-005
          37  0.184029903918909     
          38  6.274565312682416E-002
          39 -0.108887651361808     
          40  1.065278252007416E-006
          41  8.098669007374014E-002
          42 -8.098665986023243E-002
          43 -6.384905956728822E-002
          44  6.384889167633150E-002
          45  8.098667687490886E-002
          46 -8.098668541774888E-002
          47 -6.384904241318719E-002
          48  6.384893915950640E-002
Sym=     6a
Ene=  -0.577070221443134     
Spin= Alpha
Occup=     2.00000000
           1 -0.190405921996325     
           2 -5.665966350664221E-002
           3  4.048823245585734E-003
           4 -2.198583950788980E-005
           5 -4.175399981307172E-007
           6  0.184625583430278     
           7 -7.887746525349600E-005
           8  7.082287325018770E-005
           9  0.190406128388392     
          10 -5.666243121383079E-002
          11 -4.000473373435213E-003
          12 -2.251961671710423E-005
          13 -0.194888303887630     
          14 -0.133038540955495     
          15 -0.115086768304413     
          16 -7.920874093816700E-005
          17 -0.194888797887732     
          18 -0.132940195819430     
          19  0.115200108601142     
          20 -2.327882353981987E-005
          21  0.190406054717070     
          22 -5.665944709543774E-002
          23  4.048895221289680E-003
          24 -2.058433918587049E-005
          25  2.915385988764180E-008
          26  0.184625576167781     
          27 -7.860409624649727E-005
          28  7.396814462594885E-005
          29 -0.190405954479754     
          30 -5.666266977670827E-002
          31 -4.000401129329353E-003
          32 -2.394342179038532E-005
          33  0.194888493564537     
          34 -0.133038556752158     
          35 -0.115086660472548     
          36 -7.770003930750039E-005
          37  0.194888924479159     
          38 -0.132940191008949     
          39  0.115200046850739     
          40 -2.954409749229527E-005
          41 -7.327772499375437E-002
          42  7.327782817538853E-002
          43 -0.109694374345850     
          44 -0.109694691220810     
          45  7.327781053761570E-002
          46 -7.327772793733277E-002
          47  0.109694592876220     
          48  0.109694833691172     
Sym=     7a
Ene=  -0.575292039244191     
Spin= Alpha
Occup=     2.00000000
           1 -3.291952215888289E-002
           2  0.203738039114758     
           3 -2.292214342928627E-003
           4  7.953815315492293E-005
           5  0.200775330593541     
           6 -4.872514635751989E-005
           7 -0.114493791633175     
           8 -2.599378641476904E-005
           9 -3.291917557004641E-002
          10 -0.203740155465766     
          11 -2.118141809169177E-003
          12 -7.784555804362281E-005
          13 -0.212441817892609     
          14  7.424913255787123E-003
          15  0.122926945644635     
          16  3.189591762941987E-005
          17  0.212441348224787     
          18 -7.320211859130833E-003
          19  0.122933493288856     
          20  2.699017131552327E-005
          21  3.291957879874798E-002
          22  0.203738149774573     
          23 -2.292170260328180E-003
          24  7.934331738533881E-005
          25 -0.200775284403979     
          26 -4.868029626221426E-005
          27 -0.114493840272152     
          28 -2.625831117414785E-005
          29  3.291910012303073E-002
          30 -0.203740050637664     
          31 -2.118188393781878E-003
          32 -8.346181718117004E-005
          33  0.212441653600760     
          34  7.424919996886314E-003
          35  0.122926782609154     
          36  3.013046956718801E-005
          37 -0.212441239474749     
          38 -7.320194364664546E-003
          39  0.122933331934844     
          40  2.373915169409571E-005
          41 -1.102098673735221E-002
          42 -1.102096674089500E-002
          43 -0.111708900193260     
          44  0.111708609439923     
          45  1.102113101481479E-002
          46  1.102081859154307E-002
          47  0.111708712014676     
          48 -0.111708475399518     
Sym=     8a
Ene=  -0.567593700342158     
Spin= Alpha
Occup=     2.00000000
           1  0.206016609472861     
           2 -1.430789853471388E-002
           3 -0.125251548844341     
           4 -3.448074246868451E-005
           5 -0.132819148696559     
           6 -1.011128622024382E-004
           7 -0.236643097479987     
           8 -5.458706535525890E-005
           9  0.206016540254538     
          10  1.420101842440861E-002
          11 -0.125263802870602     
          12 -2.329960007764961E-005
          13 -3.323014858536201E-002
          14 -5.263612445111004E-002
          15 -0.115775235578343     
          16 -4.760199250406868E-005
          17 -3.323017776564547E-002
          18 -5.253723563061991E-002
          19  0.115820146534545     
          20  7.565362989313066E-006
          21  0.206016517463902     
          22  1.430800837639649E-002
          23  0.125251643237916     
          24  3.447700687901874E-005
          25 -0.132819229106410     
          26  1.010236394124391E-004
          27  0.236643064102330     
          28  5.357338651760875E-005
          29  0.206016591947914     
          30 -1.420095823520694E-002
          31  0.125263751643593     
          32  2.282765160393272E-005
          33 -3.323033641591688E-002
          34  5.263628746904403E-002
          35  0.115775303750543     
          36  4.648658843381674E-005
          37 -3.323035752017211E-002
          38  5.253739085191890E-002
          39 -0.115820219418547     
          40 -3.871433848965080E-006
          41  0.159019257414287     
          42  0.159019281138822     
          43 -5.802603790678042E-003
          44 -5.802670498820102E-003
          45  0.159019280944846     
          46  0.159019267975360     
          47 -5.802841485615766E-003
          48 -5.802873317556695E-003
Sym=     9a
Ene=  -0.527102716914964     
Spin= Alpha
Occup=     2.00000000
           1 -9.391095720606314E-002
           2  8.759434654731869E-002
           3  0.183190661701587     
           4  7.555623619186065E-005
           5  1.373408575504944E-007
           6 -0.131475462238918     
           7  5.621712256267323E-005
           8 -5.103835127243633E-005
           9  9.391083399470714E-002
          10  8.743773587984659E-002
          11 -0.183265381063943     
          12 -9.039313276105299E-006
          13  1.771679426288550E-002
          14  8.453406472366747E-002
          15 -0.181495736251866     
          16 -9.829618670372021E-006
          17  1.771669242558693E-002
          18  8.468898638228042E-002
          19  0.181423395773014     
          20  7.742956865577814E-005
          21  9.391095407105876E-002
          22  8.759416051663953E-002
          23  0.183190696757736     
          24  7.843368823907143E-005
          25  1.204092707503534E-007
          26 -0.131475391505599     
          27  5.611504450071464E-005
          28 -5.098219381527245E-005
          29 -9.391105092434192E-002
          30  8.743777771149071E-002
          31 -0.183265458454636     
          32 -5.279018720990724E-006
          33 -1.771663336715178E-002
          34  8.453377142037048E-002
          35 -0.181495748675324     
          36 -5.384709780517118E-006
          37 -1.771676329071565E-002
          38  8.468882957734851E-002
          39  0.181423518177263     
          40  7.317162882060044E-005
          41 -0.165823831020829     
          42  0.165823833292541     
          43  0.124288500958329     
          44  0.124288350523144     
          45  0.165823944848620     
          46 -0.165823899382486     
          47 -0.124288142520556     
          48 -0.124288245706520     
Sym=    10a
Ene=  -0.522163008181729     
Spin= Alpha
Occup=     2.00000000
           1 -0.176775646493213     
           2 -0.137460127819296     
           3  2.060069015661754E-002
           4 -5.210405917281922E-005
           5  1.314783181438023E-007
           6  0.187866496377131     
           7 -8.033796726482249E-005
           8  6.680954986342479E-005
           9  0.176775535851217     
          10 -0.137477817643925     
          11 -2.048329728705693E-002
          12 -5.850189703337392E-005
          13 -0.182566172193942     
          14 -0.109197283685550     
          15  9.761833157271785E-002
          16 -1.935804625711469E-005
          17  0.182566230089287     
          18  0.109281187581036     
          19  9.752503298511146E-002
          20  6.524259138359236E-005
          21 -0.176775509435507     
          22  0.137460007158458     
          23 -2.060038894302425E-002
          24  4.614286086084119E-005
          25  8.789269778020240E-008
          26 -0.187866538205364     
          27  8.035614412491701E-005
          28 -8.044768733403536E-005
          29  0.176775514464004     
          30  0.137478005916305     
          31  2.048333618897605E-002
          32  5.946843262351053E-005
          33 -0.182566315241293     
          34  0.109197402143093     
          35 -9.761840784202869E-002
          36  2.216220356799064E-005
          37  0.182566382580312     
          38 -0.109281192636568     
          39 -9.752490610470220E-002
          40 -6.597291636521827E-005
          41 -9.596086001674919E-002
          42  9.596077578167184E-002
          43 -0.187738240947211     
          44  0.187738624326632     
          45 -9.596050806911102E-002
          46  9.596087454698651E-002
          47 -0.187738359866553     
          48  0.187738615416119     
Sym=    11a
Ene=  -0.516620300703685     
Spin= Alpha
Occup=     2.00000000
           1 -4.357353196900424E-002
           2  0.164901890733568     
           3 -9.393193524729113E-002
           4  4.341651397423227E-005
           5  0.123183184340535     
           6 -4.363716374556258E-005
           7 -0.101626531875394     
           8 -2.091166302682028E-005
           9 -4.357396857017004E-002
          10 -0.164981818238828     
          11 -9.379083253256784E-002
          12 -8.249967472349325E-005
          13  3.600572439443415E-002
          14  0.256113067408642     
          15  5.172196831872184E-002
          16  1.125043622263195E-004
          17  3.600538512935198E-002
          18  0.256068631663543     
          19 -5.194094577186194E-002
          20  8.693499371626644E-005
          21 -4.357360458926780E-002
          22 -0.164901970590817     
          23  9.393179166435706E-002
          24 -4.165586756042921E-005
          25  0.123183179447823     
          26  4.356867263002632E-005
          27  0.101626534027349     
          28  2.589137908472991E-005
          29 -4.357391251373882E-002
          30  0.164981771559025     
          31  9.379098320418086E-002
          32  8.999985906561768E-005
          33  3.600571682479577E-002
          34 -0.256113170340552     
          35 -5.172183787733011E-002
          36 -1.134597646290462E-004
          37  3.600534683208347E-002
          38 -0.256068664316396     
          39  5.194085083959556E-002
          40 -9.295805801466298E-005
          41  5.423153342063824E-002
          42  5.423110083104016E-002
          43  0.166400253285312     
          44  0.166399992189540     
          45  5.423130997676076E-002
          46  5.423132155305219E-002
          47  0.166400536576525     
          48  0.166400155408075     
Sym=    12a
Ene=  -0.491005369919011     
Spin= Alpha
Occup=     2.00000000
           1  4.764141697153978E-002
           2 -3.319695778603335E-002
           3 -0.261036703488968     
           4 -1.026999413709647E-004
           5 -0.197947925170667     
           6  1.857539370347359E-005
           7  4.354525310863614E-002
           8 -3.352734530285764E-005
           9  4.764156252011651E-002
          10  3.297406621851841E-002
          11 -0.261065299850158     
          12 -7.530651936396758E-005
          13 -0.107192288206182     
          14  6.302908193136164E-003
          15  2.427679390824891E-002
          16 -1.370693341103587E-005
          17  0.107192309999397     
          18 -6.282275368293476E-003
          19  2.428159319991455E-002
          20 -1.954664375692263E-005
          21 -4.764150301682300E-002
          22 -3.319733664614281E-002
          23 -0.261037088434020     
          24 -1.053723645082249E-004
          25  0.197947721241148     
          26  1.869113471155458E-005
          27  4.354597439386006E-002
          28 -3.655059582022243E-005
          29 -4.764141771960208E-002
          30  3.297426192456650E-002
          31 -0.261065106979436     
          32 -8.007821295127540E-005
          33  0.107192158563764     
          34  6.303185143597899E-003
          35  2.427608521642857E-002
          36 -2.087288905781267E-005
          37 -0.107192066404826     
          38 -6.282223671768583E-003
          39  2.428199953451509E-002
          40 -2.477907077906871E-005
          41  0.256375547580598     
          42  0.256375901957053     