      -----------------------------------------------------------      
     |                   =====================                   |     
     |                           x T B                           |     
     |                   =====================                   |     
     |                         S. Grimme                         |     
     |          Mulliken Center for Theoretical Chemistry        |     
     |                    University of Bonn                     |     
      -----------------------------------------------------------      

   * xtb version 6.5.0 (746241f) compiled by 'ehlert@majestix' on 2022-05-15

   xtb is free software: you can redistribute it and/or modify it under
   the terms of the GNU Lesser General Public License as published by
   the Free Software Foundation, either version 3 of the License, or
   (at your option) any later version.
   
   xtb is distributed in the hope that it will be useful,
   but WITHOUT ANY WARRANTY; without even the implied warranty of
   MERCHANTABILITY or FITNESS FOR A PARTICULAR PURPOSE.  See the
   GNU Lesser General Public License for more details.
   
   Cite this work as:
   * C. Bannwarth, E. Caldeweyher, S. Ehlert, A. Hansen, P. Pracht,
     J. Seibert, S. Spicher, S. Grimme, WIREs Comput. Mol. Sci., 2020, 11,
     e01493. DOI: 10.1002/wcms.1493
   
   for GFN2-xTB:
   * C. Bannwarth, S. Ehlert and S. Grimme., J. Chem. Theory Comput., 2019,
     15, 1652-1671. DOI: 10.1021/acs.jctc.8b01176
   for GFN1-xTB:
   * S. Grimme, C. Bannwarth, P. Shushkov, J. Chem. Theory Comput., 2017,
     13, 1989-2009. DOI: 10.1021/acs.jctc.7b00118
   for GFN0-xTB:
   * P. Pracht, E. Caldeweyher, S. Ehlert, S. Grimme, ChemRxiv, 2019, preprint.
     DOI: 10.26434/chemrxiv.8326202.v1
   for GFN-FF:
   * S. Spicher and S. Grimme, Angew. Chem. Int. Ed., 2020, 59, 15665-15673.
     DOI: 10.1002/anie.202004239
   
   for ALPB and GBSA implicit solvation:
   * S. Ehlert, M. Stahn, S. Spicher, S. Grimme, J. Chem. Theory Comput.,
     2021, 17, 4250-4261. DOI: 10.1021/acs.jctc.1c00471
   
   for DFT-D4:
   * E. Caldeweyher, C. Bannwarth and S. Grimme, J. Chem. Phys., 2017,
     147, 034112. DOI: 10.1063/1.4993215
   * E. Caldeweyher, S. Ehlert, A. Hansen, H. Neugebauer, S. Spicher,
     C. Bannwarth and S. Grimme, J. Chem. Phys., 2019, 150, 154122.
     DOI: 10.1063/1.5090222
   * E. Caldeweyher, J.-M. Mewes, S. Ehlert and S. Grimme, Phys. Chem. Chem. Phys.
     2020, 22, 8499-8512. DOI: 10.1039/D0CP00502A
   
   for sTDA-xTB:
   * S. Grimme and C. Bannwarth, J. Chem. Phys., 2016, 145, 054103.
     DOI: 10.1063/1.4959605
   
   in the mass-spec context:
   * V. Asgeirsson, C. Bauer and S. Grimme, Chem. Sci., 2017, 8, 4879.
     DOI: 10.1039/c7sc00601b
   * J. Koopman and S. Grimme, ACS Omega 2019, 4, 12, 15120-15133.
     DOI: 10.1021/acsomega.9b02011
   
   for metadynamics refer to:
   * S. Grimme, J. Chem. Theory Comput., 2019, 155, 2847-2862
     DOI: 10.1021/acs.jctc.9b00143
   
   for SPH calculations refer to:
   * S. Spicher and S. Grimme, J. Chem. Theory Comput., 2021, 17, 1701-1714
     DOI: 10.1021/acs.jctc.0c01306
   
   with help from (in alphabetical order)
   P. Atkinson, C. Bannwarth, F. Bohle, G. Brandenburg, E. Caldeweyher
   M. Checinski, S. Dohm, S. Ehlert, S. Ehrlich, I. Gerasimov, C. Hölzer
   A. Katbashev, J. Koopman, C. Lavigne, S. Lehtola, F. März, M. Müller,
   F. Musil, H. Neugebauer, J. Pisarek, C. Plett, P. Pracht, F. Pultar,
   J. Seibert, P. Shushkov, S. Spicher, M. Stahn, M. Steiner, T. Strunk,
   J. Stückrath, T. Rose, and J. Unsleber
   
 * started run on 2022/07/20 at 13:39:16.239     

           -------------------------------------------------
          |                Calculation Setup                |
           -------------------------------------------------

          program call               : xtb -c 0 -u 0 --opt --molden naphthalene.xyz
          coordinate file            : naphthalene.xyz
          omp threads                :                    16

   ID    Z sym.   atoms
    1    6 C      1-10
    2    1 H      11-18

           -------------------------------------------------
          |                 G F N 2 - x T B                 |
           -------------------------------------------------

        Reference                      10.1021/acs.jctc.8b01176
      * Hamiltonian:
        H0-scaling (s, p, d)           1.850000    2.230000    2.230000
        zeta-weighting                 0.500000
      * Dispersion:
        s8                             2.700000
        a1                             0.520000
        a2                             5.000000
        s9                             5.000000
      * Repulsion:
        kExp                           1.500000    1.000000
        rExp                           1.000000
      * Coulomb:
        alpha                          2.000000
        third order                    shell-resolved
        anisotropic                    true
        a3                             3.000000
        a5                             4.000000
        cn-shift                       1.200000
        cn-exp                         4.000000
        max-rad                        5.000000


          ...................................................
          :                      SETUP                      :
          :.................................................:
          :  # basis functions                  48          :
          :  # atomic orbitals                  48          :
          :  # shells                           28          :
          :  # electrons                        48          :
          :  max. iterations                   250          :
          :  Hamiltonian                  GFN2-xTB          :
          :  restarted?                      false          :
          :  GBSA solvation                  false          :
          :  PC potential                    false          :
          :  electronic temp.          300.0000000     K    :
          :  accuracy                    1.0000000          :
          :  -> integral cutoff          0.2500000E+02      :
          :  -> integral neglect         0.1000000E-07      :
          :  -> SCF convergence          0.1000000E-05 Eh   :
          :  -> wf. convergence          0.1000000E-03 e    :
          :  Broyden damping             0.4000000          :
          ...................................................

 iter      E             dE          RMSdq      gap      omega  full diag
   1    -25.9474838 -0.259475E+02  0.484E+00    2.99       0.0  T
   2    -25.9633012 -0.158174E-01  0.290E+00    2.98       1.0  T
   3    -25.9602835  0.301769E-02  0.633E-01    2.98       1.0  T
   4    -25.9631272 -0.284373E-02  0.302E-01    2.98       1.0  T
   5    -25.9648477 -0.172049E-02  0.372E-02    2.97       1.0  T
   6    -25.9648475  0.245557E-06  0.802E-03    2.97       2.9  T
   7    -25.9648480 -0.583272E-06  0.164E-03    2.97      14.4  T
   8    -25.9648481 -0.369912E-07  0.474E-04    2.97      49.8  T
   9    -25.9648481 -0.146365E-09  0.269E-05    2.97     876.8  T

   *** convergence criteria satisfied after 9 iterations ***

         #    Occupation            Energy/Eh            Energy/eV
      -------------------------------------------------------------
         1        2.0000           -0.6494810             -17.6733
       ...           ...                  ...                  ...
        18        2.0000           -0.4483884             -12.2013
        19        2.0000           -0.4412900             -12.0081
        20        2.0000           -0.4243683             -11.5476
        21        2.0000           -0.4164176             -11.3313
        22        2.0000           -0.4134739             -11.2512
        23        2.0000           -0.4006590             -10.9025
        24        2.0000           -0.3729442             -10.1483 (HOMO)
        25                         -0.2636762              -7.1750 (LUMO)
        26                         -0.2236294              -6.0853
        27                         -0.1894294              -5.1546
        28                         -0.1476486              -4.0177
        29                         -0.0514569              -1.4002
       ...                                ...                  ...
        48                          0.7117029              19.3664
      -------------------------------------------------------------
                  HL-Gap            0.1092679 Eh            2.9733 eV
             Fermi-level           -0.3183102 Eh           -8.6617 eV

 SCC (total)                   0 d,  0 h,  0 min,  0.008 sec
 SCC setup                      ...        0 min,  0.002 sec ( 26.370%)
 Dispersion                     ...        0 min,  0.000 sec (  1.027%)
 classical contributions        ...        0 min,  0.000 sec (  0.134%)
 integral evaluation            ...        0 min,  0.000 sec (  5.274%)
 iterations                     ...        0 min,  0.004 sec ( 53.028%)
 molecular gradient             ...        0 min,  0.001 sec ( 12.915%)
 printout                       ...        0 min,  0.000 sec (  1.103%)

         :::::::::::::::::::::::::::::::::::::::::::::::::::::
         ::                     SUMMARY                     ::
         :::::::::::::::::::::::::::::::::::::::::::::::::::::
         :: total energy             -25.470548008367 Eh    ::
         :: gradient norm              0.078867439110 Eh/a0 ::
         :: HOMO-LUMO gap              2.973332093328 eV    ::
         ::.................................................::
         :: SCC energy               -25.964848079182 Eh    ::
         :: -> isotropic ES            0.001078276038 Eh    ::
         :: -> anisotropic ES          0.003457535779 Eh    ::
         :: -> anisotropic XC          0.017926945247 Eh    ::
         :: -> dispersion             -0.016672160326 Eh    ::
         :: repulsion energy           0.494263630803 Eh    ::
         :: add. restraining           0.000000000000 Eh    ::
         :: total charge              -0.000000000000 e     ::
         :::::::::::::::::::::::::::::::::::::::::::::::::::::

      ----------------------------------------------------------- 
     |                   =====================                   |
     |                        A N C O P T                        |
     |                   =====================                   |
     |               Approximate Normal Coordinate               |
     |                Rational Function Optimizer                |
      ----------------------------------------------------------- 

          ...................................................
          :                      SETUP                      :
          :.................................................:
          :   optimization level            normal          :
          :   max. optcycles                   200          :
          :   ANC micro-cycles                  20          :
          :   degrees of freedom                48          :
          :.................................................:
          :   RF solver                   davidson          :
          :   write xtbopt.log                true          :
          :   linear?                        false          :
          :   energy convergence         0.5000000E-05 Eh   :
          :   grad. convergence          0.1000000E-02 Eh/α :
          :   maximium RF displ.         1.0000000          :
          :   Hlow (freq-cutoff)         0.1000000E-01      :
          :   Hmax (freq-cutoff)         5.0000000          :
          :   S6 in model hess.         20.0000000          :
          ...................................................

generating ANC from model Hessian ...
Using Lindh-Hessian (1995)
 Shifting diagonal of input Hessian by   4.219069014057261E-003
 Lowest  eigenvalues of input Hessian
    0.000000    0.000000    0.000000    0.000000    0.000000    0.000000
    0.010000    0.010110    0.018561    0.023486    0.023511    0.026260
    0.032947    0.039027    0.063976    0.068968    0.070401    0.082200
 Highest eigenvalues
    1.786307    1.804230    1.819215    1.921715    2.058070    2.121012
 

........................................................................
.............................. CYCLE    1 ..............................
........................................................................
   1    -25.9648481 -0.259648E+02  0.797E-06    2.97       0.0  T
   2    -25.9648481 -0.106581E-12  0.479E-06    2.97    4924.3  T
   3    -25.9648481 -0.959233E-13  0.308E-06    2.97    7663.1  T
     SCC iter.                  ...        0 min,  0.001 sec
     gradient                   ...        0 min,  0.001 sec
 * total energy  :   -25.4705480 Eh     change       -0.1035971E-10 Eh
   gradient norm :     0.0788675 Eh/α   predicted     0.0000000E+00 (-100.00%)
   displ. norm   :     0.0948486 α      lambda       -0.5016662E-02
   maximum displ.:     0.0486348 α      in ANC's #9, #25, #37, ...

........................................................................
.............................. CYCLE    2 ..............................
........................................................................
   1    -25.9784433 -0.259784E+02  0.104E-01    3.14       0.0  T
   2    -25.9784739 -0.305701E-04  0.908E-02    3.14       1.0  T
   3    -25.9784892 -0.153505E-04  0.426E-02    3.14       1.0  T
   4    -25.9784914 -0.217878E-05  0.888E-03    3.14       2.7  T
   5    -25.9784926 -0.116452E-05  0.149E-03    3.14      15.8  T
   6    -25.9784926 -0.325707E-08  0.501E-04    3.14      47.1  T
   7    -25.9784926 -0.663039E-09  0.412E-05    3.14     572.2  T
     SCC iter.                  ...        0 min,  0.003 sec
     gradient                   ...        0 min,  0.001 sec
 * total energy  :   -25.4738718 Eh     change       -0.3323827E-02 Eh
   gradient norm :     0.0298655 Eh/α   predicted    -0.2530896E-02 ( -23.86%)
   displ. norm   :     0.0364617 α      lambda       -0.9135453E-03
   maximum displ.:     0.0182150 α      in ANC's #45, #37, #9, ...

........................................................................
.............................. CYCLE    3 ..............................
........................................................................
   1    -25.9829420 -0.259829E+02  0.682E-02    3.24       0.0  T
   2    -25.9829493 -0.730313E-05  0.486E-02    3.24       1.0  T
   3    -25.9829480  0.135659E-05  0.197E-02    3.24       1.2  T
   4    -25.9829530 -0.500537E-05  0.403E-03    3.24       5.9  T
   5    -25.9829532 -0.256303E-06  0.702E-04    3.24      33.6  T
   6    -25.9829532 -0.755371E-09  0.735E-05    3.24     320.6  T
     SCC iter.                  ...        0 min,  0.003 sec
     gradient                   ...        0 min,  0.001 sec
 * total energy  :   -25.4743519 Eh     change       -0.4800481E-03 Eh
   gradient norm :     0.0039998 Eh/α   predicted    -0.4573789E-03 (  -4.72%)
   displ. norm   :     0.0162709 α      lambda       -0.3788591E-04
   maximum displ.:     0.0122564 α      in ANC's #17, #18, #25, ...

........................................................................
.............................. CYCLE    4 ..............................
........................................................................
   1    -25.9819492 -0.259819E+02  0.206E-02    3.25       0.0  T
   2    -25.9819492 -0.341627E-07  0.120E-02    3.25       2.0  T
   3    -25.9819492  0.380857E-07  0.194E-03    3.25      12.1  T
   4    -25.9819493 -0.541715E-07  0.346E-04    3.25      68.2  T
   5    -25.9819493 -0.305512E-09  0.177E-04    3.25     132.9  T
     SCC iter.                  ...        0 min,  0.002 sec
     gradient                   ...        0 min,  0.001 sec
 * total energy  :   -25.4743786 Eh     change       -0.2672271E-04 Eh
   gradient norm :     0.0017468 Eh/α   predicted    -0.1894932E-04 ( -29.09%)
   displ. norm   :     0.0210773 α      lambda       -0.1363457E-04
   maximum displ.:     0.0169694 α      in ANC's #17, #9, #18, ...

........................................................................
.............................. CYCLE    5 ..............................
........................................................................
   1    -25.9812266 -0.259812E+02  0.210E-02    3.25       0.0  T
   2    -25.9812267 -0.577574E-07  0.126E-02    3.25       1.9  T
   3    -25.9812264  0.270327E-06  0.382E-03    3.25       6.2  T
   4    -25.9812267 -0.321505E-06  0.370E-04    3.25      63.6  T
   5    -25.9812267 -0.150422E-09  0.127E-04    3.25     185.8  T
     SCC iter.                  ...        0 min,  0.002 sec
     gradient                   ...        0 min,  0.001 sec
 * total energy  :   -25.4743846 Eh     change       -0.5974809E-05 Eh
   gradient norm :     0.0008880 Eh/α   predicted    -0.6819370E-05 (  14.14%)
   displ. norm   :     0.0060145 α      lambda       -0.1977504E-05
   maximum displ.:     0.0041146 α      in ANC's #17, #18, #9, ...

........................................................................
.............................. CYCLE    6 ..............................
........................................................................
   1    -25.9816378 -0.259816E+02  0.743E-03    3.25       0.0  T
   2    -25.9816378 -0.388825E-08  0.438E-03    3.25       5.4  T
   3    -25.9816378  0.115706E-07  0.864E-04    3.25      27.3  T
   4    -25.9816378 -0.141808E-07  0.127E-04    3.25     185.1  T
     SCC iter.                  ...        0 min,  0.002 sec
     gradient                   ...        0 min,  0.001 sec
 * total energy  :   -25.4743861 Eh     change       -0.1519183E-05 Eh
   gradient norm :     0.0001525 Eh/α   predicted    -0.9899286E-06 ( -34.84%)
   displ. norm   :     0.0004525 α      lambda       -0.1659298E-07
   maximum displ.:     0.0002833 α      in ANC's #9, #18, #17, ...

   *** GEOMETRY OPTIMIZATION CONVERGED AFTER 6 ITERATIONS ***

------------------------------------------------------------------------
 total energy gain   :        -0.0038381 Eh       -2.4084 kcal/mol
 total RMSD          :         0.0269749 a0        0.0143 Å
 total power (kW/mol):        -1.6794847 (step) -389.4479 (real)
------------------------------------------------------------------------

 ANCopt (total)                0 d,  0 h,  0 min,  0.026 sec
 optimizer setup                ...        0 min,  0.000 sec (  0.271%)
 model hessian                  ...        0 min,  0.002 sec (  7.622%)
 ANC generation                 ...        0 min,  0.000 sec (  1.067%)
 coordinate transformation      ...        0 min,  0.000 sec (  0.093%)
 single point calculation       ...        0 min,  0.022 sec ( 85.960%)
 optimization log               ...        0 min,  0.000 sec (  1.328%)
 hessian update                 ...        0 min,  0.000 sec (  0.121%)
 rational function              ...        0 min,  0.001 sec (  2.790%)

================
 final structure:
================
18
 xtb: 6.5.0 (746241f)
C           -1.23781058671818       -1.39195299398916       -0.00478163311617
C           -0.00278086835792       -0.71046608054426       -0.00415163694503
C            1.23166583249036       -1.39300770345401       -0.00384198387902
C            2.41147810134082       -0.70358458126690       -0.00323162589968
C            2.41207768809990        0.70033336385560       -0.00288759818413
C            1.23285470662682        1.39076402668811       -0.00317892686500
C           -0.00217446705096        0.70927712893662       -0.00382740165246
C           -1.23662159923881        1.39181894050397       -0.00417614938598
C           -2.41643354237711        0.70239605074183       -0.00481061092088
C           -2.41703322342599       -0.70152247219844       -0.00510094798795
H           -1.23322941828484       -2.47300144628158       -0.00503141595477
H            1.22616212230558       -2.47405177901251       -0.00408616004571
H            3.35312241577805       -1.23326117352588       -0.00298696230000
H            3.35417430984438        1.22920478356223       -0.00239284144826
H            1.22827435076231        2.47181243047472       -0.00292601564946
H           -1.23111713942535        2.47286307054235       -0.00391849829068
H           -3.35807843368583        1.23207164822487       -0.00506624109724
H           -3.35913024868325       -1.23039321325756       -0.00560335037760
 
 Bond Distances (Angstroems)
 ---------------------------
C1-C2=1.4106         C1-C10=1.3665        C1-H11=1.0811        C2-C1=1.4106         C2-C3=1.4106         C2-C7=1.4197         
C3-C2=1.4106         C3-C4=1.3665         C3-H12=1.0811        C4-C3=1.3665         C4-C5=1.4039         C4-H13=1.0804        
C5-C4=1.4039         C5-C6=1.3665         C5-H14=1.0804        C6-C5=1.3665         C6-C7=1.4106         C6-H15=1.0811        
C7-C2=1.4197         C7-C6=1.4106         C7-C8=1.4106         C8-C7=1.4106         C8-C9=1.3665         C8-H16=1.0811        
C9-C8=1.3665         C9-C10=1.4039        C9-H17=1.0804        C10-C1=1.3665        C10-C9=1.4039        C10-H18=1.0804       
H11-C1=1.0811        H12-C3=1.0811        H13-C4=1.0804        H14-C5=1.0804        H15-C6=1.0811        H16-C8=1.0811        
H17-C9=1.0804        H18-C10=1.0804       
 C  H  Rav=1.0807 sigma=0.0003  Rmin=1.0804  Rmax=1.0811     8
 C  C  Rav=1.3942 sigma=0.0213  Rmin=1.3665  Rmax=1.4197    11
 
 selected bond angles (degree)
 --------------------
C10-C1-C2=120.76               H11-C1-C2=118.65               H11-C1-C10=120.59              C3-C2-C1=122.17                
C7-C2-C1=118.91                C7-C2-C3=118.91                C4-C3-C2=120.76                H12-C3-C2=118.65               
H12-C3-C4=120.59               C5-C4-C3=120.32                H13-C4-C3=120.34               H13-C4-C5=119.33               
C6-C5-C4=120.32                H14-C5-C4=119.33               H14-C5-C6=120.34               C7-C6-C5=120.76                
H15-C6-C5=120.59               H15-C6-C7=118.65               C6-C7-C2=118.91                C8-C7-C2=118.91                
C8-C7-C6=122.17                C9-C8-C7=120.76                H16-C8-C7=118.65               H16-C8-C9=120.59               
C10-C9-C8=120.32               H17-C9-C8=120.34               H17-C9-C10=119.33              C9-C10-C1=120.32               
H18-C10-C1=120.34              H18-C10-C9=119.33              
 
 selected dihedral angles (degree)
 ---------------------------------
C3-C2-C1-C10=180.00           C3-C2-C1-H11=  0.00           C7-C2-C1-C10=  0.00           C7-C2-C1-H11=180.00           
C4-C3-C2-C1=180.00            C4-C3-C2-C7=  0.00            H12-C3-C2-C1=  0.00           H12-C3-C2-C7=180.00           
C5-C4-C3-C2=  0.00            C5-C4-C3-H12=180.00           H13-C4-C3-C2=180.00           H13-C4-C3-H12=  0.00          
C6-C5-C4-C3=  0.00            C6-C5-C4-H13=180.00           H14-C5-C4-C3=180.00           H14-C5-C4-H13=  0.00          
C7-C6-C5-C4=  0.00            C7-C6-C5-H14=180.00           H15-C6-C5-C4=180.00           H15-C6-C5-H14=  0.00          
C6-C7-C2-C1=180.00            C6-C7-C2-C3=  0.00            C8-C7-C2-C1=  0.00            C8-C7-C2-C3=180.00            
C2-C7-C6-C5=  0.00            C2-C7-C6-H15=180.00           C8-C7-C6-C5=180.00            C8-C7-C6-H15=  0.00           
C9-C8-C7-C2=  0.00            C9-C8-C7-C6=180.00            H16-C8-C7-C2=180.00           H16-C8-C7-C6=  0.00           
C10-C9-C8-C7=  0.00           C10-C9-C8-H16=180.00          H17-C9-C8-C7=180.00           H17-C9-C8-H16=  0.00          
C9-C10-C1-C2=  0.00           C9-C10-C1-H11=180.00          H18-C10-C1-C2=180.00          H18-C10-C1-H11=  0.00         
C1-C10-C9-C8=  0.00           C1-C10-C9-H17=180.00          H18-C10-C9-C8=180.00          H18-C10-C9-H17=  0.00         
           -------------------------------------------------
          |                Final Singlepoint                |
           -------------------------------------------------

          ...................................................
          :                      SETUP                      :
          :.................................................:
          :  # basis functions                  48          :
          :  # atomic orbitals                  48          :
          :  # shells                           28          :
          :  # electrons                        48          :
          :  max. iterations                   250          :
          :  Hamiltonian                  GFN2-xTB          :
          :  restarted?                      false          :
          :  GBSA solvation                  false          :
          :  PC potential                    false          :
          :  electronic temp.          300.0000000     K    :
          :  accuracy                    1.0000000          :
          :  -> integral cutoff          0.2500000E+02      :
          :  -> integral neglect         0.1000000E-07      :
          :  -> SCF convergence          0.1000000E-05 Eh   :
          :  -> wf. convergence          0.1000000E-03 e    :
          :  Broyden damping             0.4000000          :
          ...................................................

 iter      E             dE          RMSdq      gap      omega  full diag
   1    -25.9816378 -0.259816E+02  0.561E-05    3.25       0.0  T
   2    -25.9816378 -0.124878E-10  0.365E-05    3.25     646.5  T
   3    -25.9816378 -0.381917E-11  0.193E-05    3.25    1221.2  T

   *** convergence criteria satisfied after 3 iterations ***

         #    Occupation            Energy/Eh            Energy/eV
      -------------------------------------------------------------
         1        2.0000           -0.6476415             -17.6232
       ...           ...                  ...                  ...
        18        2.0000           -0.4507043             -12.2643
        19        2.0000           -0.4398285             -11.9683
        20        2.0000           -0.4242605             -11.5447
        21        2.0000           -0.4153413             -11.3020
        22        2.0000           -0.4130066             -11.2385
        23        2.0000           -0.3984509             -10.8424
        24        2.0000           -0.3773679             -10.2687 (HOMO)
        25                         -0.2579328              -7.0187 (LUMO)
        26                         -0.2264281              -6.1614
        27                         -0.1869895              -5.0882
        28                         -0.1427773              -3.8852
        29                         -0.0538305              -1.4648
       ...                                ...                  ...
        48                          0.6999953              19.0478
      -------------------------------------------------------------
                  HL-Gap            0.1194351 Eh            3.2500 eV
             Fermi-level           -0.3176504 Eh           -8.6437 eV

 SCC (total)                   0 d,  0 h,  0 min,  0.003 sec
 SCC setup                      ...        0 min,  0.000 sec (  2.280%)
 Dispersion                     ...        0 min,  0.000 sec (  1.501%)
 classical contributions        ...        0 min,  0.000 sec (  0.268%)
 integral evaluation            ...        0 min,  0.000 sec ( 13.848%)
 iterations                     ...        0 min,  0.001 sec ( 42.119%)
 molecular gradient             ...        0 min,  0.001 sec ( 37.665%)
 printout                       ...        0 min,  0.000 sec (  1.939%)

         :::::::::::::::::::::::::::::::::::::::::::::::::::::
         ::                     SUMMARY                     ::
         :::::::::::::::::::::::::::::::::::::::::::::::::::::
         :: total energy             -25.474386099963 Eh    ::
         :: gradient norm              0.000152582252 Eh/a0 ::
         :: HOMO-LUMO gap              3.249993395280 eV    ::
         ::.................................................::
         :: SCC energy               -25.981637801977 Eh    ::
         :: -> isotropic ES            0.001063399734 Eh    ::
         :: -> anisotropic ES          0.003281739577 Eh    ::
         :: -> anisotropic XC          0.017405802916 Eh    ::
         :: -> dispersion             -0.016653350101 Eh    ::
         :: repulsion energy           0.507214617981 Eh    ::
         :: add. restraining           0.000000000000 Eh    ::
         :: total charge              -0.000000000000 e     ::
         :::::::::::::::::::::::::::::::::::::::::::::::::::::

           -------------------------------------------------
          |                Property Printout                |
           -------------------------------------------------

    * Orbital Energies and Occupations

         #    Occupation            Energy/Eh            Energy/eV
      -------------------------------------------------------------
         1        2.0000           -0.6476415             -17.6232
       ...           ...                  ...                  ...
        12        2.0000           -0.4910054             -13.3609
        13        2.0000           -0.4897568             -13.3270
        14        2.0000           -0.4878394             -13.2748
        15        2.0000           -0.4729599             -12.8699
        16        2.0000           -0.4698245             -12.7846
        17        2.0000           -0.4599876             -12.5169
        18        2.0000           -0.4507043             -12.2643
        19        2.0000           -0.4398285             -11.9683
        20        2.0000           -0.4242605             -11.5447
        21        2.0000           -0.4153413             -11.3020
        22        2.0000           -0.4130066             -11.2385
        23        2.0000           -0.3984509             -10.8424
        24        2.0000           -0.3773679             -10.2687 (HOMO)
        25                         -0.2579328              -7.0187 (LUMO)
        26                         -0.2264281              -6.1614
        27                         -0.1869895              -5.0882
        28                         -0.1427773              -3.8852
        29                         -0.0538305              -1.4648
        30                          0.1103389               3.0025
        31                          0.1184874               3.2242
        32                          0.1448196               3.9407
        33                          0.1460354               3.9738
        34                          0.1675154               4.5583
        35                          0.1788975               4.8680
       ...                                ...                  ...
        48                          0.6999953              19.0478
      -------------------------------------------------------------
                  HL-Gap            0.1194351 Eh            3.2500 eV
             Fermi-level           -0.3176504 Eh           -8.6437 eV

     #   Z          covCN         q      C6AA      α(0)
     1   6 C        2.918    -0.035    28.875     8.812
     2   6 C        2.987     0.013    27.714     8.636
     3   6 C        2.918    -0.035    28.875     8.812
     4   6 C        2.916    -0.030    28.755     8.793
     5   6 C        2.916    -0.030    28.755     8.793
     6   6 C        2.918    -0.035    28.875     8.812
     7   6 C        2.987     0.013    27.714     8.636
     8   6 C        2.918    -0.035    28.875     8.812
     9   6 C        2.916    -0.030    28.755     8.793
    10   6 C        2.916    -0.030    28.755     8.793
    11   1 H        0.926     0.030     2.587     2.515
    12   1 H        0.926     0.030     2.587     2.515
    13   1 H        0.926     0.029     2.602     2.522
    14   1 H        0.926     0.029     2.602     2.522
    15   1 H        0.926     0.030     2.587     2.515
    16   1 H        0.926     0.030     2.587     2.515
    17   1 H        0.926     0.029     2.602     2.522
    18   1 H        0.926     0.029     2.602     2.522

 Mol. C6AA /au·bohr⁶  :       4401.559947
 Mol. C8AA /au·bohr⁸  :     110435.868518
 Mol. α(0) /au        :        107.841930


Wiberg/Mayer (AO) data.
largest (>0.10) Wiberg bond orders for each atom

 ---------------------------------------------------------------------------
     #   Z sym  total        # sym  WBO       # sym  WBO       # sym  WBO
 ---------------------------------------------------------------------------
     1   6 C    3.992 --    10 C    1.558     2 C    1.280    11 H    0.969
                             8 C    0.119
     2   6 C    3.991 --     3 C    1.280     1 C    1.280     7 C    1.252
     3   6 C    3.992 --     4 C    1.558     2 C    1.280    12 H    0.969
                             6 C    0.119
     4   6 C    3.993 --     3 C    1.558     5 C    1.320    13 H    0.971
     5   6 C    3.993 --     6 C    1.558     4 C    1.320    14 H    0.971
     6   6 C    3.992 --     5 C    1.558     7 C    1.280    15 H    0.969
                             3 C    0.119
     7   6 C    3.991 --     6 C    1.280     8 C    1.280     2 C    1.252
     8   6 C    3.992 --     9 C    1.558     7 C    1.280    16 H    0.969
                             1 C    0.119
     9   6 C    3.993 --     8 C    1.558    10 C    1.320    17 H    0.971
    10   6 C    3.993 --     1 C    1.558     9 C    1.320    18 H    0.971
    11   1 H    0.999 --     1 C    0.969
    12   1 H    0.999 --     3 C    0.969
    13   1 H    0.999 --     4 C    0.971
    14   1 H    0.999 --     5 C    0.971
    15   1 H    0.999 --     6 C    0.969
    16   1 H    0.999 --     8 C    0.969
    17   1 H    0.999 --     9 C    0.971
    18   1 H    0.999 --    10 C    0.971
 ---------------------------------------------------------------------------

Topologies differ in total number of bonds
Writing topology from bond orders to xtbtopo.mol

MOs/occ written to file <molden.input>


molecular dipole:
                 x           y           z       tot (Debye)
 q only:       -0.000      -0.000       0.000
   full:        0.000      -0.000       0.000       0.000
molecular quadrupole (traceless):
                xx          xy          yy          xz          yz          zz
 q only:        0.965       0.000       1.095       0.001       0.001      -2.060
  q+dip:        4.135       0.000       4.323       0.005       0.003      -8.458
   full:        1.906       0.000       2.236       0.002       0.001      -4.142

           -------------------------------------------------
          |                Geometry Summary                 |
           -------------------------------------------------

      molecular mass/u    :      128.1708850
   center of mass at/Å    :       -0.0024778      -0.0005944      -0.0039990
  moments of inertia/u·Å² :        0.1596214E+03   0.4047787E+03   0.5644002E+03
rotational constants/cm⁻¹ :        0.1056101E+00   0.4164654E-01   0.2986823E-01

 * 19 selected distances

     #   Z          #   Z                                           value/Å
     1   6 C        2   6 C                                       1.4105756
     2   6 C        3   6 C                                       1.4105751
     3   6 C        4   6 C                                       1.3664779
     4   6 C        5   6 C                                       1.4039182
     5   6 C        6   6 C                                       1.3664779
     2   6 C        7   6 C                                       1.4197435 (max)
     6   6 C        7   6 C                                       1.4105751
     7   6 C        8   6 C                                       1.4105756
     8   6 C        9   6 C                                       1.3664775
     1   6 C       10   6 C                                       1.3664775
     9   6 C       10   6 C                                       1.4039188
     1   6 C       11   1 H                                       1.0810583
     3   6 C       12   1 H                                       1.0810582
     4   6 C       13   1 H                                       1.0803942
     5   6 C       14   1 H                                       1.0803941 (min)
     6   6 C       15   1 H                                       1.0810582
     8   6 C       16   1 H                                       1.0810583
     9   6 C       17   1 H                                       1.0803942
    10   6 C       18   1 H                                       1.0803942

 * 2 distinct bonds (by element types)

   Z      Z             #   av. dist./Å        max./Å        min./Å
   1 H    6 C           8     1.0807262     1.0810583     1.0803941
   6 C    6 C          11     1.3941630     1.4197435     1.3664775


optimized geometry written to: xtbopt.xyz


           -------------------------------------------------
          | TOTAL ENERGY              -25.474386099963 Eh   |
          | GRADIENT NORM               0.000152582252 Eh/α |
          | HOMO-LUMO GAP               3.249993395280 eV   |
           -------------------------------------------------

------------------------------------------------------------------------
 * finished run on 2022/07/20 at 13:39:16.320     
------------------------------------------------------------------------
 total:
 * wall-time:     0 d,  0 h,  0 min,  0.081 sec
 *  cpu-time:     0 d,  0 h,  0 min,  1.178 sec
 * ratio c/w:    14.559 speedup
 SCF:
 * wall-time:     0 d,  0 h,  0 min,  0.008 sec
 *  cpu-time:     0 d,  0 h,  0 min,  0.128 sec
 * ratio c/w:    15.546 speedup
 ANC optimizer:
 * wall-time:     0 d,  0 h,  0 min,  0.029 sec
 *  cpu-time:     0 d,  0 h,  0 min,  0.466 sec
 * ratio c/w:    15.848 speedup

