18
 energy: -25.470548008377 gnorm: 0.078867474650 xtb: 6.5.0 (746241f)
C           -1.21410000000000       -1.39550000000000       -0.00440000000000
C           -0.00280000000000       -0.70150000000000       -0.00380000000000
C            1.20790000000000       -1.39650000000000       -0.00380000000000
C            2.41420000000000       -0.69840000000000       -0.00350000000000
C            2.41480000000000        0.69510000000000       -0.00290000000000
C            1.20910000000000        1.39430000000000       -0.00280000000000
C           -0.00220000000000        0.70030000000000       -0.00350000000000
C           -1.21290000000000        1.39530000000000       -0.00410000000000
C           -2.41910000000000        0.69720000000000       -0.00510000000000
C           -2.41970000000000       -0.69630000000000       -0.00510000000000
H           -1.22400000000000       -2.48300000000000       -0.00450000000000
H            1.21690000000000       -2.48400000000000       -0.00420000000000
H            3.35590000000000       -1.24180000000000       -0.00370000000000
H            3.35690000000000        1.23780000000000       -0.00260000000000
H            1.21900000000000        2.48180000000000       -0.00240000000000
H           -1.22180000000000        2.48280000000000       -0.00400000000000
H           -3.36080000000000        1.24060000000000       -0.00580000000000
H           -3.36190000000000       -1.23890000000000       -0.00580000000000
18
 energy: -25.473871835108 gnorm: 0.029865521556 xtb: 6.5.0 (746241f)
C           -1.22966036856968       -1.39380375471316       -0.00447651662650
C           -0.00278454216645       -0.70869362627456       -0.00387017881723
C            1.22349129636293       -1.39483477798400       -0.00388063940503
C            2.41115207099763       -0.70009638955542       -0.00345311283161
C            2.41174902968014        0.69682347574953       -0.00288894309392
C            1.22468609346732        1.39259837943819       -0.00290402675966
C           -0.00217799147045        0.70749568407055       -0.00356739056500
C           -1.22846448327306        1.39364779388438       -0.00415024357941
C           -2.41609322580151        0.69891067829301       -0.00506503618954
C           -2.41668774876521       -0.69802491263758       -0.00506611252763
H           -1.23936481240860       -2.47544388068035       -0.00457155944384
H            1.23229794702113       -2.47648322379056       -0.00421236905300
H            3.34956994633459       -1.23821004823988       -0.00356335975226
H            3.35059085751378        1.23419772032519       -0.00247752272483
H            1.23440152686774        2.47423718659020       -0.00247150501035
H           -1.23720435493649        2.47529751326859       -0.00400510513942
H           -3.35451972268304        1.23701460100188       -0.00568927775708
H           -3.35558151817078       -1.23533241874601       -0.00568710072369
18
 energy: -25.474351883205 gnorm: 0.003999827303 xtb: 6.5.0 (746241f)
C           -1.23768433628680       -1.39200268440360       -0.00465119787936
C           -0.00277903163397       -0.71138684648675       -0.00402730342443
C            1.23153457986188       -1.39305325049204       -0.00380361633210
C            2.41101516006523       -0.70244640422125       -0.00334822118701
C            2.41161261153355        0.69919102325537       -0.00289884392759
C            1.23272367511233        1.39080432286041       -0.00301585195490
C           -0.00217192972293        0.71019318772634       -0.00369319707656
C           -1.23649340662568        1.39186846854435       -0.00415348232765
C           -2.41597198564628        0.70126264780191       -0.00491640929704
C           -2.41656815389764       -0.70038572786839       -0.00515203113239
H           -1.24011060037484       -2.47216034270600       -0.00473071914792
H            1.23305274301118       -2.47321467712894       -0.00412670537456
H            3.35005099858555       -1.23609190419290       -0.00334882059127
H            3.35109453195815        1.23205294885857       -0.00245692773300
H            1.23515883087338        2.47096199081945       -0.00264974210854
H           -1.23798411217862        2.47202945825262       -0.00396427836021
H           -3.35501490752880        1.23489622041389       -0.00540817519163
H           -3.35606466710570       -1.23321843103304       -0.00565447695385
18
 energy: -25.474378605919 gnorm: 0.001746818068 xtb: 6.5.0 (746241f)
C           -1.23814627668220       -1.39183890962393       -0.00469468457756
C           -0.00277983921629       -0.71110829432915       -0.00407891766868
C            1.23199944469750       -1.39289259756708       -0.00384111865630
C            2.41173430742719       -0.70315783121490       -0.00330662045249
C            2.41233294380925        0.69990466687502       -0.00289445175159
C            1.23318742897450        1.39064598651205       -0.00309418097669
C           -0.00217357978980        0.70991707428706       -0.00375336465787
C           -1.23695719650296        1.39170572591127       -0.00417553409454
C           -2.41668967226627        0.70197200059964       -0.00488567567358
C           -2.41728791445877       -0.70109634118955       -0.00510948670650
H           -1.23666416956068       -2.47255405430819       -0.00487461492115
H            1.22960230825971       -2.47360702327324       -0.00410169423512
H            3.35204352582470       -1.23499558557109       -0.00317868052228
H            3.35309314081538        1.23094523488765       -0.00241972672273
H            1.23171038300589        2.47136142922048       -0.00276742136958
H           -1.23454716254552        2.47241942327594       -0.00393729989577
H           -3.35700309207353        1.23380166479311       -0.00525482799829
H           -3.35805457971811       -1.23212256928509       -0.00563169911928
18
 energy: -25.474384580728 gnorm: 0.000888011478 xtb: 6.5.0 (746241f)
C           -1.23786822279740       -1.39182853659265       -0.00481733209071
C           -0.00278113864524       -0.71035821821281       -0.00416338949180
C            1.23172416146858       -1.39288397163967       -0.00382920033340
C            2.41177108908925       -0.70381263299131       -0.00319832326328
C            2.41237111651814        0.70056234761004       -0.00288205868213
C            1.23291268403520        1.39064133441763       -0.00319269227855
C           -0.00217494265983        0.70917003192718       -0.00383699957144
C           -1.23667981983540        1.39169464661011       -0.00416066321224
C           -2.41672580194611        0.70262371448128       -0.00477639760646
C           -2.41732628085372       -0.70175069191459       -0.00511725881477
H           -1.23187486696677       -2.47314883597940       -0.00503659173519
H            1.22480638338455       -2.47419813486215       -0.00410566516630
H            3.35379630736203       -1.23302043502439       -0.00297245985442
H            3.35485050889458        1.22896015990402       -0.00239171045345
H            1.22691940042697        2.47196159754213       -0.00294229185194
H           -1.22976553615973        2.47300879346589       -0.00394163382712
H           -3.35875106970436        1.23183114737986       -0.00504853682364
H           -3.35980397161074       -1.23015231612117       -0.00558679494313
18
 energy: -25.474386099910 gnorm: 0.000152522717 xtb: 6.5.0 (746241f)
C           -1.23781058671818       -1.39195299398916       -0.00478163311617
C           -0.00278086835792       -0.71046608054426       -0.00415163694503
C            1.23166583249036       -1.39300770345401       -0.00384198387902
C            2.41147810134082       -0.70358458126690       -0.00323162589968
C            2.41207768809990        0.70033336385560       -0.00288759818413
C            1.23285470662682        1.39076402668811       -0.00317892686500
C           -0.00217446705096        0.70927712893662       -0.00382740165246
C           -1.23662159923881        1.39181894050397       -0.00417614938598
C           -2.41643354237711        0.70239605074183       -0.00481061092088
C           -2.41703322342599       -0.70152247219844       -0.00510094798795
H           -1.23322941828484       -2.47300144628158       -0.00503141595477
H            1.22616212230558       -2.47405177901251       -0.00408616004571
H            3.35312241577805       -1.23326117352588       -0.00298696230000
H            3.35417430984438        1.22920478356223       -0.00239284144826
H            1.22827435076231        2.47181243047472       -0.00292601564946
H           -1.23111713942535        2.47286307054235       -0.00391849829068
H           -3.35807843368583        1.23207164822487       -0.00506624109724
H           -3.35913024868325       -1.23039321325756       -0.00560335037760
