2
H2.log	Energy:    -739.6329104
H         -0.55367        0.78446        0.00000
H          0.18744        0.83512       -0.00000
