2
 energy: -0.982686174876 gnorm: 0.000000025706 xtb: 6.5.1 (579679a)
H           -0.57056493991660        0.78330797709500        0.00000000000000
H            0.20432493991660        0.83627202290500        0.00000000000000
