2
 energy: -0.980023008497 gnorm: 0.063102503738 xtb: 6.5.1 (579679a)
H           -0.53630000000000        0.78565000000000        0.00000000000000
H            0.17006000000000        0.83393000000000        0.00000000000000
2
 energy: -0.982616735855 gnorm: 0.008869614447 xtb: 6.5.1 (579679a)
H           -0.56464199713591        0.78371281269930        0.00000000000000
H            0.19840199713591        0.83586718730070        0.00000000000000
2
 energy: -0.982682955892 gnorm: 0.001870623144 xtb: 6.5.1 (579679a)
H           -0.56927652522199        0.78339604077564        0.00000000000000
H            0.20303652522199        0.83618395922436        0.00000000000000
2
 energy: -0.982685550933 gnorm: 0.000816912160 xtb: 6.5.1 (579679a)
H           -0.57113451310900        0.78326904653024        0.00000000000000
H            0.20489451310900        0.83631095346976        0.00000000000000
2
 energy: -0.982686174832 gnorm: 0.000006903854 xtb: 6.5.1 (579679a)
H           -0.57056975346996        0.78330764808663        0.00000000000000
H            0.20432975346996        0.83627235191337        0.00000000000000
2
 energy: -0.982686174876 gnorm: 0.000000025706 xtb: 6.5.1 (579679a)
H           -0.57056493991660        0.78330797709500        0.00000000000000
H            0.20432493991660        0.83627202290500        0.00000000000000
