      -----------------------------------------------------------      
     |                   =====================                   |     
     |                           x T B                           |     
     |                   =====================                   |     
     |                         S. Grimme                         |     
     |          Mulliken Center for Theoretical Chemistry        |     
     |                    University of Bonn                     |     
      -----------------------------------------------------------      

   * xtb version 6.5.0 (746241f) compiled by 'ehlert@majestix' on 2022-05-15

   xtb is free software: you can redistribute it and/or modify it under
   the terms of the GNU Lesser General Public License as published by
   the Free Software Foundation, either version 3 of the License, or
   (at your option) any later version.
   
   xtb is distributed in the hope that it will be useful,
   but WITHOUT ANY WARRANTY; without even the implied warranty of
   MERCHANTABILITY or FITNESS FOR A PARTICULAR PURPOSE.  See the
   GNU Lesser General Public License for more details.
   
   Cite this work as:
   * C. Bannwarth, E. Caldeweyher, S. Ehlert, A. Hansen, P. Pracht,
     J. Seibert, S. Spicher, S. Grimme, WIREs Comput. Mol. Sci., 2020, 11,
     e01493. DOI: 10.1002/wcms.1493
   
   for GFN2-xTB:
   * C. Bannwarth, S. Ehlert and S. Grimme., J. Chem. Theory Comput., 2019,
     15, 1652-1671. DOI: 10.1021/acs.jctc.8b01176
   for GFN1-xTB:
   * S. Grimme, C. Bannwarth, P. Shushkov, J. Chem. Theory Comput., 2017,
     13, 1989-2009. DOI: 10.1021/acs.jctc.7b00118
   for GFN0-xTB:
   * P. Pracht, E. Caldeweyher, S. Ehlert, S. Grimme, ChemRxiv, 2019, preprint.
     DOI: 10.26434/chemrxiv.8326202.v1
   for GFN-FF:
   * S. Spicher and S. Grimme, Angew. Chem. Int. Ed., 2020, 59, 15665-15673.
     DOI: 10.1002/anie.202004239
   
   for ALPB and GBSA implicit solvation:
   * S. Ehlert, M. Stahn, S. Spicher, S. Grimme, J. Chem. Theory Comput.,
     2021, 17, 4250-4261. DOI: 10.1021/acs.jctc.1c00471
   
   for DFT-D4:
   * E. Caldeweyher, C. Bannwarth and S. Grimme, J. Chem. Phys., 2017,
     147, 034112. DOI: 10.1063/1.4993215
   * E. Caldeweyher, S. Ehlert, A. Hansen, H. Neugebauer, S. Spicher,
     C. Bannwarth and S. Grimme, J. Chem. Phys., 2019, 150, 154122.
     DOI: 10.1063/1.5090222
   * E. Caldeweyher, J.-M. Mewes, S. Ehlert and S. Grimme, Phys. Chem. Chem. Phys.
     2020, 22, 8499-8512. DOI: 10.1039/D0CP00502A
   
   for sTDA-xTB:
   * S. Grimme and C. Bannwarth, J. Chem. Phys., 2016, 145, 054103.
     DOI: 10.1063/1.4959605
   
   in the mass-spec context:
   * V. Asgeirsson, C. Bauer and S. Grimme, Chem. Sci., 2017, 8, 4879.
     DOI: 10.1039/c7sc00601b
   * J. Koopman and S. Grimme, ACS Omega 2019, 4, 12, 15120-15133.
     DOI: 10.1021/acsomega.9b02011
   
   for metadynamics refer to:
   * S. Grimme, J. Chem. Theory Comput., 2019, 155, 2847-2862
     DOI: 10.1021/acs.jctc.9b00143
   
   for SPH calculations refer to:
   * S. Spicher and S. Grimme, J. Chem. Theory Comput., 2021, 17, 1701-1714
     DOI: 10.1021/acs.jctc.0c01306
   
   with help from (in alphabetical order)
   P. Atkinson, C. Bannwarth, F. Bohle, G. Brandenburg, E. Caldeweyher
   M. Checinski, S. Dohm, S. Ehlert, S. Ehrlich, I. Gerasimov, C. Hölzer
   A. Katbashev, J. Koopman, C. Lavigne, S. Lehtola, F. März, M. Müller,
   F. Musil, H. Neugebauer, J. Pisarek, C. Plett, P. Pracht, F. Pultar,
   J. Seibert, P. Shushkov, S. Spicher, M. Stahn, M. Steiner, T. Strunk,
   J. Stückrath, T. Rose, and J. Unsleber
   
 * started run on 2022/07/14 at 15:23:25.207     

           -------------------------------------------------
          |                Calculation Setup                |
           -------------------------------------------------

          program call               : xtb -c 0 -u 0 h4fcl2.xyz --opt normal
          coordinate file            : h4fcl2.xyz
          omp threads                :                    16

   ID    Z sym.   atoms
    1    6 C      1, 2
    2    1 H      3, 4, 7, 8
    3    9 F      5
    4   17 Cl     6

           -------------------------------------------------
          |                 G F N 2 - x T B                 |
           -------------------------------------------------

        Reference                      10.1021/acs.jctc.8b01176
      * Hamiltonian:
        H0-scaling (s, p, d)           1.850000    2.230000    2.230000
        zeta-weighting                 0.500000
      * Dispersion:
        s8                             2.700000
        a1                             0.520000
        a2                             5.000000
        s9                             5.000000
      * Repulsion:
        kExp                           1.500000    1.000000
        rExp                           1.000000
      * Coulomb:
        alpha                          2.000000
        third order                    shell-resolved
        anisotropic                    true
        a3                             3.000000
        a5                             4.000000
        cn-shift                       1.200000
        cn-exp                         4.000000
        max-rad                        5.000000

q/qsh data taken from xtbrestart
CAMM data taken from xtbrestart

          ...................................................
          :                      SETUP                      :
          :.................................................:
          :  # basis functions                  26          :
          :  # atomic orbitals                  25          :
          :  # shells                           13          :
          :  # electrons                        26          :
          :  max. iterations                   250          :
          :  Hamiltonian                  GFN2-xTB          :
          :  restarted?                       true          :
          :  GBSA solvation                  false          :
          :  PC potential                    false          :
          :  electronic temp.          300.0000000     K    :
          :  accuracy                    1.0000000          :
          :  -> integral cutoff          0.2500000E+02      :
          :  -> integral neglect         0.1000000E-07      :
          :  -> SCF convergence          0.1000000E-05 Eh   :
          :  -> wf. convergence          0.1000000E-03 e    :
          :  Broyden damping             0.4000000          :
          ...................................................

 iter      E             dE          RMSdq      gap      omega  full diag
   1    -15.6759303 -0.156759E+02  0.799E-01    6.84       0.0  T
   2    -15.6759456 -0.152929E-04  0.477E-01    6.84       1.0  T
   3    -15.6759519 -0.624650E-05  0.346E-02    6.85       1.0  T
   4    -15.6759531 -0.123291E-05  0.207E-02    6.84       1.7  T
   5    -15.6759536 -0.481600E-06  0.999E-03    6.84       3.5  T
   6    -15.6759538 -0.217834E-06  0.447E-03    6.84       7.9  T
   7    -15.6759538 -0.459964E-07  0.202E-03    6.84      17.5  T
   8    -15.6759538 -0.688720E-08  0.263E-04    6.84     134.4  T
   9    -15.6759538 -0.546976E-10  0.109E-04    6.84     324.9  T

   *** convergence criteria satisfied after 9 iterations ***

         #    Occupation            Energy/Eh            Energy/eV
      -------------------------------------------------------------
         1        2.0000           -1.0574594             -28.7749
       ...           ...                  ...                  ...
         7        2.0000           -0.5462753             -14.8649
         8        2.0000           -0.5184164             -14.1068
         9        2.0000           -0.5084450             -13.8355
        10        2.0000           -0.4757287             -12.9452
        11        2.0000           -0.4646468             -12.6437
        12        2.0000           -0.4223380             -11.4924
        13        2.0000           -0.4207622             -11.4495 (HOMO)
        14                         -0.1692784              -4.6063 (LUMO)
        15                          0.0016337               0.0445
        16                          0.0046062               0.1253
        17                          0.0177770               0.4837
        18                          0.0190944               0.5196
       ...                                ...                  ...
        25                          0.1963339               5.3425
      -------------------------------------------------------------
                  HL-Gap            0.2514838 Eh            6.8432 eV
             Fermi-level           -0.2950203 Eh           -8.0279 eV

 SCC (total)                   0 d,  0 h,  0 min,  0.004 sec
 SCC setup                      ...        0 min,  0.000 sec (  2.419%)
 Dispersion                     ...        0 min,  0.000 sec (  2.749%)
 classical contributions        ...        0 min,  0.000 sec (  0.162%)
 integral evaluation            ...        0 min,  0.000 sec ( 10.414%)
 iterations                     ...        0 min,  0.002 sec ( 66.606%)
 molecular gradient             ...        0 min,  0.001 sec ( 15.582%)
 printout                       ...        0 min,  0.000 sec (  1.712%)

         :::::::::::::::::::::::::::::::::::::::::::::::::::::
         ::                     SUMMARY                     ::
         :::::::::::::::::::::::::::::::::::::::::::::::::::::
         :: total energy             -15.593325040590 Eh    ::
         :: gradient norm              0.030888214874 Eh/a0 ::
         :: HOMO-LUMO gap              6.843223410182 eV    ::
         ::.................................................::
         :: SCC energy               -15.675953837778 Eh    ::
         :: -> isotropic ES            0.019311583635 Eh    ::
         :: -> anisotropic ES          0.001179583309 Eh    ::
         :: -> anisotropic XC         -0.000043503441 Eh    ::
         :: -> dispersion             -0.003409439098 Eh    ::
         :: repulsion energy           0.082628065298 Eh    ::
         :: add. restraining           0.000000000000 Eh    ::
         :: total charge               0.000000000000 e     ::
         :::::::::::::::::::::::::::::::::::::::::::::::::::::

      ----------------------------------------------------------- 
     |                   =====================                   |
     |                        A N C O P T                        |
     |                   =====================                   |
     |               Approximate Normal Coordinate               |
     |                Rational Function Optimizer                |
      ----------------------------------------------------------- 

          ...................................................
          :                      SETUP                      :
          :.................................................:
          :   optimization level            normal          :
          :   max. optcycles                   200          :
          :   ANC micro-cycles                  20          :
          :   degrees of freedom                18          :
          :.................................................:
          :   RF solver                   davidson          :
          :   write xtbopt.log                true          :
          :   linear?                        false          :
          :   energy convergence         0.5000000E-05 Eh   :
          :   grad. convergence          0.1000000E-02 Eh/α :
          :   maximium RF displ.         1.0000000          :
          :   Hlow (freq-cutoff)         0.1000000E-01      :
          :   Hmax (freq-cutoff)         5.0000000          :
          :   S6 in model hess.         20.0000000          :
          ...................................................

generating ANC from model Hessian ...
Using Lindh-Hessian (1995)
 Shifting diagonal of input Hessian by   0.000000000000000E+000
 Lowest  eigenvalues of input Hessian
    0.000000    0.000000    0.000000    0.000000    0.000000    0.000000
    0.012450    0.025896    0.036919    0.050029    0.065070    0.068104
    0.090332    0.115484    0.135060    0.137274    0.165810    0.349786
 Highest eigenvalues
    0.630524    0.998791    1.033399    1.105791    1.171891    1.429501
 

........................................................................
.............................. CYCLE    1 ..............................
........................................................................
   1    -15.6759538 -0.156760E+02  0.271E-05    6.84       0.0  T
   2    -15.6759538 -0.550671E-12  0.213E-05    6.84    1662.8  T
   3    -15.6759538 -0.113864E-11  0.114E-05    6.84    3093.5  T
     SCC iter.                  ...        0 min,  0.001 sec
     gradient                   ...        0 min,  0.001 sec
 * total energy  :   -15.5933250 Eh     change       -0.1080913E-10 Eh
   gradient norm :     0.0308883 Eh/α   predicted     0.0000000E+00 (-100.00%)
   displ. norm   :     0.1622666 α      lambda       -0.2714112E-02
   maximum displ.:     0.1096163 α      in ANC's #1, #12, #4, ...

........................................................................
.............................. CYCLE    2 ..............................
........................................................................
   1    -15.6847522 -0.156848E+02  0.254E-01    6.88       0.0  T
   2    -15.6847550 -0.280458E-05  0.150E-01    6.88       1.0  T
   3    -15.6847561 -0.105279E-05  0.133E-02    6.88       2.7  T
   4    -15.6847564 -0.298990E-06  0.787E-03    6.88       4.5  T
   5    -15.6847565 -0.842082E-07  0.436E-03    6.88       8.1  T
   6    -15.6847565 -0.567589E-07  0.205E-03    6.88      17.2  T
   7    -15.6847565 -0.116675E-07  0.109E-03    6.88      32.3  T
   8    -15.6847565 -0.331916E-08  0.332E-04    6.88     106.3  T
   9    -15.6847565 -0.195719E-09  0.243E-04    6.88     145.6  T
     SCC iter.                  ...        0 min,  0.001 sec
     gradient                   ...        0 min,  0.001 sec
 * total energy  :   -15.5949658 Eh     change       -0.1640716E-02 Eh
   gradient norm :     0.0091522 Eh/α   predicted    -0.1392789E-02 ( -15.11%)
   displ. norm   :     0.1348932 α      lambda       -0.3961822E-03
   maximum displ.:     0.1290004 α      in ANC's #1, #12, #4, ...

........................................................................
.............................. CYCLE    3 ..............................
........................................................................
   1    -15.6879042 -0.156879E+02  0.149E-01    6.86       0.0  T
   2    -15.6879052 -0.101818E-05  0.886E-02    6.86       1.0  T
   3    -15.6879055 -0.220961E-06  0.956E-03    6.86       3.7  T
   4    -15.6879057 -0.188469E-06  0.557E-03    6.86       6.3  T
   5    -15.6879057 -0.436258E-07  0.296E-03    6.86      11.9  T
   6    -15.6879057 -0.205863E-07  0.184E-03    6.86      19.3  T
   7    -15.6879057 -0.126614E-07  0.693E-04    6.86      51.0  T
   8    -15.6879057 -0.109614E-08  0.235E-04    6.86     150.4  T
     SCC iter.                  ...        0 min,  0.001 sec
     gradient                   ...        0 min,  0.001 sec
 * total energy  :   -15.5952269 Eh     change       -0.2611547E-03 Eh
   gradient norm :     0.0026648 Eh/α   predicted    -0.2016959E-03 ( -22.77%)
   displ. norm   :     0.1386564 α      lambda       -0.1619978E-03
   maximum displ.:     0.1373259 α      in ANC's #1, #2, #3, ...

........................................................................
.............................. CYCLE    4 ..............................
........................................................................
   1    -15.6882707 -0.156883E+02  0.152E-01    6.82       0.0  T
   2    -15.6882712 -0.507829E-06  0.911E-02    6.82       1.0  T
   3    -15.6882714 -0.255890E-06  0.734E-03    6.82       4.8  T
   4    -15.6882715 -0.636712E-07  0.514E-03    6.82       6.9  T
   5    -15.6882715 -0.466295E-07  0.287E-03    6.82      12.3  T
   6    -15.6882716 -0.268623E-07  0.146E-03    6.82      24.2  T
   7    -15.6882716 -0.782418E-08  0.604E-04    6.82      58.5  T
   8    -15.6882716 -0.711287E-09  0.208E-04    6.82     170.2  T
     SCC iter.                  ...        0 min,  0.001 sec
     gradient                   ...        0 min,  0.002 sec
 * total energy  :   -15.5953580 Eh     change       -0.1310835E-03 Eh
   gradient norm :     0.0020630 Eh/α   predicted    -0.8255623E-04 ( -37.02%)
   displ. norm   :     0.0917921 α      lambda       -0.7632669E-04
   maximum displ.:     0.0902591 α      in ANC's #1, #3, #2, ...

........................................................................
.............................. CYCLE    5 ..............................
........................................................................
   1    -15.6879124 -0.156879E+02  0.102E-01    6.80       0.0  T
   2    -15.6879125 -0.169912E-06  0.613E-02    6.80       1.0  T
   3    -15.6879126 -0.100847E-06  0.401E-03    6.80       8.8  T
   4    -15.6879126 -0.123060E-07  0.253E-03    6.80      14.0  T
   5    -15.6879126 -0.109026E-07  0.149E-03    6.80      23.7  T
   6    -15.6879127 -0.582001E-08  0.922E-04    6.80      38.3  T
   7    -15.6879127 -0.317843E-08  0.342E-04    6.81     103.4  T
     SCC iter.                  ...        0 min,  0.001 sec
     gradient                   ...        0 min,  0.001 sec
 * total energy  :   -15.5954194 Eh     change       -0.6137985E-04 Eh
   gradient norm :     0.0016883 Eh/α   predicted    -0.3848355E-04 ( -37.30%)
   displ. norm   :     0.0982858 α      lambda       -0.3605942E-04
   maximum displ.:     0.0970662 α      in ANC's #1, #3, #12, ...

........................................................................
.............................. CYCLE    6 ..............................
........................................................................
   1    -15.6876826 -0.156877E+02  0.108E-01    6.80       0.0  T
   2    -15.6876828 -0.190201E-06  0.646E-02    6.80       1.0  T
   3    -15.6876829 -0.853520E-07  0.371E-03    6.80       9.5  T
   4    -15.6876829 -0.877464E-08  0.230E-03    6.80      15.3  T
   5    -15.6876829 -0.517244E-08  0.102E-03    6.80      34.5  T
   6    -15.6876829 -0.155216E-08  0.710E-04    6.80      49.8  T
   7    -15.6876829 -0.138225E-08  0.245E-04    6.80     144.5  T
     SCC iter.                  ...        0 min,  0.001 sec
     gradient                   ...        0 min,  0.001 sec
 * total energy  :   -15.5954596 Eh     change       -0.4020545E-04 Eh
   gradient norm :     0.0017578 Eh/α   predicted    -0.1810839E-04 ( -54.96%)
   displ. norm   :     0.0745434 α      lambda       -0.1851947E-04
   maximum displ.:     0.0733471 α      in ANC's #1, #12, #2, ...

........................................................................
.............................. CYCLE    7 ..............................
........................................................................
   1    -15.6878484 -0.156878E+02  0.819E-02    6.81       0.0  T
   2    -15.6878485 -0.107885E-06  0.490E-02    6.81       1.0  T
   3    -15.6878486 -0.604015E-07  0.325E-03    6.81      10.9  T
   4    -15.6878486 -0.112288E-07  0.230E-03    6.81      15.4  T
   5    -15.6878486 -0.890420E-08  0.123E-03    6.81      28.8  T
   6    -15.6878486 -0.469004E-08  0.517E-04    6.81      68.5  T
   7    -15.6878486 -0.823565E-09  0.234E-04    6.81     151.0  T
     SCC iter.                  ...        0 min,  0.001 sec
     gradient                   ...        0 min,  0.001 sec
 * total energy  :   -15.5954796 Eh     change       -0.2003050E-04 Eh
   gradient norm :     0.0010908 Eh/α   predicted    -0.9283240E-05 ( -53.65%)
   displ. norm   :     0.0548098 α      lambda       -0.7566511E-05
   maximum displ.:     0.0539186 α      in ANC's #1, #12, #2, ...

........................................................................
.............................. CYCLE    8 ..............................
........................................................................
   1    -15.6879680 -0.156880E+02  0.613E-02    6.83       0.0  T
   2    -15.6879681 -0.989817E-07  0.366E-02    6.83       1.0  T
   3    -15.6879682 -0.406612E-07  0.325E-03    6.83      10.9  T
   4    -15.6879682 -0.204300E-07  0.235E-03    6.83      15.1  T
   5    -15.6879682 -0.117804E-07  0.132E-03    6.82      26.7  T
   6    -15.6879682 -0.610898E-08  0.611E-04    6.82      57.9  T
   7    -15.6879682 -0.142177E-08  0.222E-04    6.82     159.6  T
     SCC iter.                  ...        0 min,  0.001 sec
     gradient                   ...        0 min,  0.001 sec
 * total energy  :   -15.5954860 Eh     change       -0.6414353E-05 Eh
   gradient norm :     0.0004673 Eh/α   predicted    -0.3788340E-05 ( -40.94%)
   displ. norm   :     0.0223558 α      lambda       -0.1469200E-05
   maximum displ.:     0.0212050 α      in ANC's #1, #2, #12, ...

........................................................................
.............................. CYCLE    9 ..............................
........................................................................
   1    -15.6879985 -0.156880E+02  0.257E-02    6.83       0.0  T
   2    -15.6879985 -0.118691E-07  0.154E-02    6.83       2.3  T
   3    -15.6879985 -0.634051E-08  0.108E-03    6.83      32.8  T
   4    -15.6879985 -0.138792E-08  0.812E-04    6.83      43.6  T
   5    -15.6879985 -0.125839E-08  0.436E-04    6.83      81.1  T
     SCC iter.                  ...        0 min,  0.001 sec
     gradient                   ...        0 min,  0.001 sec
 * total energy  :   -15.5954866 Eh     change       -0.5643453E-06 Eh
   gradient norm :     0.0002382 Eh/α   predicted    -0.7354185E-06 (  30.31%)
   displ. norm   :     0.0042815 α      lambda       -0.2856976E-06
   maximum displ.:     0.0035345 α      in ANC's #1, #2, #7, ...

   *** GEOMETRY OPTIMIZATION CONVERGED AFTER 9 ITERATIONS ***

------------------------------------------------------------------------
 total energy gain   :        -0.0021615 Eh       -1.3564 kcal/mol
 total RMSD          :         0.2609407 a0        0.1381 Å
 total power (kW/mol):        -0.6305718 (step) -280.2002 (real)
------------------------------------------------------------------------

 ANCopt (total)                0 d,  0 h,  0 min,  0.020 sec
 optimizer setup                ...        0 min,  0.000 sec (  0.291%)
 model hessian                  ...        0 min,  0.000 sec (  2.359%)
 ANC generation                 ...        0 min,  0.000 sec (  0.439%)
 coordinate transformation      ...        0 min,  0.000 sec (  0.152%)
 single point calculation       ...        0 min,  0.019 sec ( 92.101%)
 optimization log               ...        0 min,  0.000 sec (  1.539%)
 hessian update                 ...        0 min,  0.000 sec (  0.254%)
 rational function              ...        0 min,  0.000 sec (  1.549%)

================
 final structure:
================
8
 xtb: 6.5.0 (746241f)
C           -0.59487850826266        0.77458104213767       -0.03511099450368
C            0.76653284075747        1.11572964389501        0.54356166743416
H            1.55585655461367        0.85059188087064       -0.16958204813927
H            0.83857019760681        2.17347054062077        0.81396651029548
F            1.00783004100491        0.39220401923068        1.68020616367947
Cl          -1.91167083392053        1.54150300708424        0.89774662345557
H           -0.66992151389662        1.14042560629954       -1.05791460312529
H           -0.76031877790304       -0.30200574013855       -0.00207331909644
 
 Bond Distances (Angstroems)
 ---------------------------
C1-C2=1.5181         C1-Cl6=1.7867        C1-H7=1.0889         C1-H8=1.0897         C2-C1=1.5181         C2-H3=1.0963         
C2-H4=1.0941         C2-F5=1.3688         H3-C2=1.0963         H4-C2=1.0941         F5-C2=1.3688         Cl6-C1=1.7867        
H7-C1=1.0889         H8-C1=1.0897         
 C  H  Rav=1.0923 sigma=0.0031  Rmin=1.0889  Rmax=1.0963     4
 C  C  Rav=1.5181 sigma=0.0000  Rmin=1.5181  Rmax=1.5181     1
 F  C  Rav=1.3688 sigma=0.0000  Rmin=1.3688  Rmax=1.3688     1
 Cl C  Rav=1.7867 sigma=0.0000  Rmin=1.7867  Rmax=1.7867     1
 
 selected bond angles (degree)
 --------------------
Cl6-C1-C2=111.43               H7-C1-C2=110.14                H7-C1-Cl6=107.18               H8-C1-C2=110.28                
H8-C1-Cl6=107.24               H8-C1-H7=110.48                H3-C2-C1=110.08                H4-C2-C1=111.75                
H4-C2-H3=110.31                F5-C2-C1=110.84                F5-C2-H3=106.58                F5-C2-H4=107.11                
 
 selected dihedral angles (degree)
 ---------------------------------
H3-C2-C1-Cl6=193.92           H3-C2-C1-H7=312.74            H3-C2-C1-H8= 74.94            H4-C2-C1-Cl6=316.86           
H4-C2-C1-H7= 75.68            H4-C2-C1-H8=197.88            F5-C2-C1-Cl6= 76.25           F5-C2-C1-H7=195.07            
F5-C2-C1-H8=317.27            
           -------------------------------------------------
          |                Final Singlepoint                |
           -------------------------------------------------

          ...................................................
          :                      SETUP                      :
          :.................................................:
          :  # basis functions                  26          :
          :  # atomic orbitals                  25          :
          :  # shells                           13          :
          :  # electrons                        26          :
          :  max. iterations                   250          :
          :  Hamiltonian                  GFN2-xTB          :
          :  restarted?                      false          :
          :  GBSA solvation                  false          :
          :  PC potential                    false          :
          :  electronic temp.          300.0000000     K    :
          :  accuracy                    1.0000000          :
          :  -> integral cutoff          0.2500000E+02      :
          :  -> integral neglect         0.1000000E-07      :
          :  -> SCF convergence          0.1000000E-05 Eh   :
          :  -> wf. convergence          0.1000000E-03 e    :
          :  Broyden damping             0.4000000          :
          ...................................................

 iter      E             dE          RMSdq      gap      omega  full diag
   1    -15.6879985 -0.156880E+02  0.289E-04    6.83       0.0  T
   2    -15.6879985 -0.820837E-10  0.237E-04    6.83     149.3  T
   3    -15.6879985 -0.146668E-09  0.132E-04    6.83     267.0  T

   *** convergence criteria satisfied after 3 iterations ***

         #    Occupation            Energy/Eh            Energy/eV
      -------------------------------------------------------------
         1        2.0000           -1.0591797             -28.8217
       ...           ...                  ...                  ...
         7        2.0000           -0.5494214             -14.9505
         8        2.0000           -0.5212262             -14.1833
         9        2.0000           -0.5100143             -13.8782
        10        2.0000           -0.4777155             -12.9993
        11        2.0000           -0.4651685             -12.6579
        12        2.0000           -0.4240103             -11.5379
        13        2.0000           -0.4222159             -11.4891 (HOMO)
        14                         -0.1712044              -4.6587 (LUMO)
        15                          0.0032109               0.0874
        16                          0.0091292               0.2484
        17                          0.0176243               0.4796
        18                          0.0176869               0.4813
       ...                                ...                  ...
        25                          0.2220659               6.0427
      -------------------------------------------------------------
                  HL-Gap            0.2510115 Eh            6.8304 eV
             Fermi-level           -0.2967102 Eh           -8.0739 eV

 SCC (total)                   0 d,  0 h,  0 min,  0.001 sec
 SCC setup                      ...        0 min,  0.000 sec (  3.170%)
 Dispersion                     ...        0 min,  0.000 sec (  1.073%)
 classical contributions        ...        0 min,  0.000 sec (  0.336%)
 integral evaluation            ...        0 min,  0.000 sec ( 21.694%)
 iterations                     ...        0 min,  0.000 sec ( 26.401%)
 molecular gradient             ...        0 min,  0.001 sec ( 42.379%)
 printout                       ...        0 min,  0.000 sec (  4.227%)

         :::::::::::::::::::::::::::::::::::::::::::::::::::::
         ::                     SUMMARY                     ::
         :::::::::::::::::::::::::::::::::::::::::::::::::::::
         :: total energy             -15.595486590253 Eh    ::
         :: gradient norm              0.000236826380 Eh/a0 ::
         :: HOMO-LUMO gap              6.830369359514 eV    ::
         ::.................................................::
         :: SCC energy               -15.687998479855 Eh    ::
         :: -> isotropic ES            0.019400843762 Eh    ::
         :: -> anisotropic ES          0.000638865175 Eh    ::
         :: -> anisotropic XC         -0.000698637214 Eh    ::
         :: -> dispersion             -0.003381491176 Eh    ::
         :: repulsion energy           0.092511178152 Eh    ::
         :: add. restraining           0.000000000000 Eh    ::
         :: total charge               0.000000000000 e     ::
         :::::::::::::::::::::::::::::::::::::::::::::::::::::

           -------------------------------------------------
          |                Property Printout                |
           -------------------------------------------------

    * Orbital Energies and Occupations

         #    Occupation            Energy/Eh            Energy/eV
      -------------------------------------------------------------
         1        2.0000           -1.0591797             -28.8217
         2        2.0000           -0.8211994             -22.3460
         3        2.0000           -0.6657663             -18.1164
         4        2.0000           -0.6174487             -16.8016
         5        2.0000           -0.5685982             -15.4723
         6        2.0000           -0.5682016             -15.4616
         7        2.0000           -0.5494214             -14.9505
         8        2.0000           -0.5212262             -14.1833
         9        2.0000           -0.5100143             -13.8782
        10        2.0000           -0.4777155             -12.9993
        11        2.0000           -0.4651685             -12.6579
        12        2.0000           -0.4240103             -11.5379
        13        2.0000           -0.4222159             -11.4891 (HOMO)
        14                         -0.1712044              -4.6587 (LUMO)
        15                          0.0032109               0.0874
        16                          0.0091292               0.2484
        17                          0.0176243               0.4796
        18                          0.0176869               0.4813
        19                          0.0331704               0.9026
        20                          0.0805453               2.1917
        21                          0.1009916               2.7481
        22                          0.1363190               3.7094
        23                          0.1519642               4.1352
        24                          0.2008530               5.4655
        25                          0.2220659               6.0427
      -------------------------------------------------------------
                  HL-Gap            0.2510115 Eh            6.8304 eV
             Fermi-level           -0.2967102 Eh           -8.0739 eV

     #   Z          covCN         q      C6AA      α(0)
     1   6 C        3.713     0.016    20.436     6.459
     2   6 C        3.632     0.104    19.239     6.314
     3   1 H        0.924     0.064     2.152     2.294
     4   1 H        0.924     0.076     2.023     2.225
     5   9 F        0.784    -0.239    11.643     4.031
     6  17 Cl       0.913    -0.185   104.947    15.673
     7   1 H        0.925     0.075     2.034     2.230
     8   1 H        0.925     0.089     1.888     2.149

 Mol. C6AA /au·bohr⁶  :        791.969606
 Mol. C8AA /au·bohr⁸  :      21754.546707
 Mol. α(0) /au        :         41.373803


Wiberg/Mayer (AO) data.
largest (>0.10) Wiberg bond orders for each atom

 ---------------------------------------------------------------------------
     #   Z sym  total        # sym  WBO       # sym  WBO       # sym  WBO
 ---------------------------------------------------------------------------
     1   6 C    3.947 --     2 C    1.014     7 H    0.977     8 H    0.974
                             6 Cl   0.960
     2   6 C    3.909 --     1 C    1.014     4 H    0.967     3 H    0.963
                             5 F    0.949
     3   1 H    0.996 --     2 C    0.963
     4   1 H    0.994 --     2 C    0.967
     5   9 F    1.011 --     2 C    0.949
     6  17 Cl   1.003 --     1 C    0.960
     7   1 H    0.994 --     1 C    0.977
     8   1 H    0.992 --     1 C    0.974
 ---------------------------------------------------------------------------

Topologies differ in total number of bonds
Writing topology from bond orders to xtbtopo.mol

molecular dipole:
                 x           y           z       tot (Debye)
 q only:        0.432       0.052      -1.020
   full:        0.375       0.100      -1.084       2.927
molecular quadrupole (traceless):
                xx          xy          yy          xz          yz          zz
 q only:       -1.129       3.849       2.785       0.240      -1.692      -1.656
  q+dip:       -1.098       4.406       3.703      -0.585      -0.983      -2.605
   full:       -0.792       3.929       3.233      -0.891      -1.006      -2.441

           -------------------------------------------------
          |                Geometry Summary                 |
           -------------------------------------------------

      molecular mass/u    :       82.5045755
   center of mass at/Å    :       -0.5526197       1.0750827       0.8416134
  moments of inertia/u·Å² :        0.3510618E+02   0.1623190E+03   0.1809160E+03
rotational constants/cm⁻¹ :        0.4801899E+00   0.1038550E+00   0.9317931E-01

 * 7 selected distances

     #   Z          #   Z                                           value/Å
     1   6 C        2   6 C                                       1.5181191
     2   6 C        3   1 H                                       1.0963139
     2   6 C        4   1 H                                       1.0941317
     2   6 C        5   9 F                                       1.3688224
     1   6 C        6  17 Cl                                      1.7867107 (max)
     1   6 C        7   1 H                                       1.0888531 (min)
     1   6 C        8   1 H                                       1.0897253

 * 4 distinct bonds (by element types)

   Z      Z             #   av. dist./Å        max./Å        min./Å
   1 H    6 C           4     1.0922560     1.0963139     1.0888531
   6 C    6 C           1     1.5181191     1.5181191     1.5181191
   6 C    9 F           1     1.3688224     1.3688224     1.3688224
   6 C   17 Cl          1     1.7867107     1.7867107     1.7867107


optimized geometry written to: xtbopt.xyz


           -------------------------------------------------
          | TOTAL ENERGY              -15.595486590253 Eh   |
          | GRADIENT NORM               0.000236826380 Eh/α |
          | HOMO-LUMO GAP               6.830369359514 eV   |
           -------------------------------------------------
########################################################################
[WARNING] Runtime exception occurred
-1- restart_readRestart: Number of electron missmatch in restart file.
########################################################################

------------------------------------------------------------------------
 * finished run on 2022/07/14 at 15:23:25.244     
------------------------------------------------------------------------
 total:
 * wall-time:     0 d,  0 h,  0 min,  0.037 sec
 *  cpu-time:     0 d,  0 h,  0 min,  0.565 sec
 * ratio c/w:    15.199 speedup
 SCF:
 * wall-time:     0 d,  0 h,  0 min,  0.004 sec
 *  cpu-time:     0 d,  0 h,  0 min,  0.056 sec
 * ratio c/w:    15.038 speedup
 ANC optimizer:
 * wall-time:     0 d,  0 h,  0 min,  0.022 sec
 *  cpu-time:     0 d,  0 h,  0 min,  0.350 sec
 * ratio c/w:    15.828 speedup

