8
 energy: -15.593325040601 gnorm: 0.030888320540 xtb: 6.5.0 (746241f)
C           -0.59890000000000        0.78840000000000       -0.03660000000000
C            0.76980000000000        1.10430000000000        0.55020000000000
H            1.56180000000000        0.71740000000000       -0.12500000000000
H            0.89430000000000        2.20290000000000        0.65540000000000
F            0.90640000000000        0.50690000000000        1.79050000000000
Cl          -1.89110000000000        1.41700000000000        1.01810000000000
H           -0.69230000000000        1.25990000000000       -1.03760000000000
H           -0.71800000000000       -0.31030000000000       -0.14420000000000
8
 energy: -15.594965756840 gnorm: 0.009152396025 xtb: 6.5.0 (746241f)
C           -0.59654404487515        0.78292508066388       -0.04058661598323
C            0.76928106815166        1.11120209979490        0.54060152255948
H            1.56402440297822        0.73250011859452       -0.11763022510533
H            0.89702777475207        2.19221577173367        0.69508448585027
F            0.93838251034669        0.50238729828769        1.75834652429975
Cl          -1.90306558494281        1.42587518087864        0.98350298616925
H           -0.69733062822237        1.24008235524319       -1.03000549694783
H           -0.73977549818831       -0.30068790519649       -0.11851318084237
8
 energy: -15.595226911540 gnorm: 0.002665000410 xtb: 6.5.0 (746241f)
C           -0.59451636375749        0.78058553178210       -0.04238755695464
C            0.76708000378076        1.11166395045432        0.53895111162938
H            1.55798414264495        0.75245111970555       -0.12864895449511
H            0.87673986421062        2.18587088854520        0.72207678050716
F            0.95559655674430        0.48100117205886        1.73923931137454
Cl          -1.90377479634931        1.45163135630459        0.96525062176176
H           -0.68747230717298        1.22187703866489       -1.03309684822249
H           -0.73963710010085       -0.29858105751551       -0.09058446560059
8
 energy: -15.595357995088 gnorm: 0.002063260896 xtb: 6.5.0 (746241f)
C           -0.59334045110630        0.77790288289664       -0.04169958547488
C            0.76705316943240        1.11318937114351        0.53986700124260
H            1.55732496191481        0.77961999622100       -0.14180199150096
H            0.86418587622543        2.18314654124835        0.74869608255596
F            0.97082638715620        0.45479142611457        1.72289980712623
Cl          -1.90749898263973        1.47821491336959        0.94668887855476
H           -0.68102156693449        1.19973698528332       -1.04006128176618
H           -0.74552939404832       -0.30010211627699       -0.06378891073754
8
 energy: -15.595419374936 gnorm: 0.001688337142 xtb: 6.5.0 (746241f)
C           -0.59313122842433        0.77713039073271       -0.04045840269077
C            0.76723740423007        1.11411950148701        0.54113103291358
H            1.55823623613816        0.79929810799144       -0.15009468594596
H            0.85853933018053        2.18122890434635        0.76584157076227
F            0.97954728274337        0.43679516508602        1.71239954538871
Cl          -1.91019259655158        1.49520610134086        0.93500564809321
H           -0.67861944702898        1.18359867488100       -1.04655820574030
H           -0.74961698128722       -0.30087684586538       -0.04646650278073
8
 energy: -15.595459580384 gnorm: 0.001757862349 xtb: 6.5.0 (746241f)
C           -0.59318034010140        0.77581808838392       -0.03853619558714
C            0.76704909259137        1.11517830680135        0.54227017869452
H            1.55830940374430        0.82029226990846       -0.15824791152292
H            0.85183874480861        2.17910045421287        0.78469091308757
F            0.98878064915581        0.41822171119668        1.70001991558559
Cl          -1.91103700657345        1.51397970565017        0.92177015371744
H           -0.67594397082882        1.16597910551752       -1.05217222095151
H           -0.75381657279642       -0.30206964167096       -0.02899483302355
8
 energy: -15.595479610885 gnorm: 0.001090910509 xtb: 6.5.0 (746241f)
C           -0.59375767376073        0.77530286559429       -0.03702176577905
C            0.76672059110322        1.11525869680620        0.54291133771156
H            1.55729052816319        0.83510398663886       -0.16382437506139
H            0.84496169033394        2.17639715047177        0.79901933197945
F            0.99830573436494        0.40522740374546        1.69033363070377
Cl          -1.91157579506878        1.52771347306344        0.91007617633909
H           -0.67307503183080        1.15353206363487       -1.05514600303762
H           -0.75687004330497       -0.30203563995488       -0.01554833285580
8
 energy: -15.595486025239 gnorm: 0.000467364670 xtb: 6.5.0 (746241f)
C           -0.59443041195614        0.77403758680471       -0.03578252847505
C            0.76631801730122        1.11613288269469        0.54331694560777
H            1.55571972158798        0.84632300376852       -0.16800166234495
H            0.84055047057129        2.17496599218065        0.80999644794101
F            1.00440932818508        0.39594316465470        1.68283536910259
Cl          -1.91060635199792        1.53788635393533        0.90175446487093
H           -0.67020593194976        1.14395110909266       -1.05690695868066
H           -0.75975484174175       -0.30274009313124       -0.00641207802163
8
 energy: -15.595486589584 gnorm: 0.000238200181 xtb: 6.5.0 (746241f)
C           -0.59487850826266        0.77458104213767       -0.03511099450368
C            0.76653284075747        1.11572964389501        0.54356166743416
H            1.55585655461367        0.85059188087064       -0.16958204813927
H            0.83857019760681        2.17347054062077        0.81396651029548
F            1.00783004100491        0.39220401923068        1.68020616367947
Cl          -1.91167083392053        1.54150300708424        0.89774662345557
H           -0.66992151389662        1.14042560629954       -1.05791460312529
H           -0.76031877790304       -0.30200574013855       -0.00207331909644
