8
 energy: -15.595486590253 gnorm: 0.000236826380 xtb: 6.5.0 (746241f)
C           -0.59487850826266        0.77458104213767       -0.03511099450368
C            0.76653284075747        1.11572964389501        0.54356166743416
H            1.55585655461367        0.85059188087064       -0.16958204813927
H            0.83857019760681        2.17347054062077        0.81396651029548
F            1.00783004100491        0.39220401923068        1.68020616367947
Cl          -1.91167083392053        1.54150300708424        0.89774662345557
H           -0.66992151389662        1.14042560629954       -1.05791460312529
H           -0.76031877790304       -0.30200574013855       -0.00207331909644
