      -----------------------------------------------------------      
     |                   =====================                   |     
     |                           x T B                           |     
     |                   =====================                   |     
     |                         S. Grimme                         |     
     |          Mulliken Center for Theoretical Chemistry        |     
     |                    University of Bonn                     |     
      -----------------------------------------------------------      

   * xtb version 6.2.2 (655bc02) compiled by 'ehlert@majestix' on 2019-12-09

   This program is distributed in the hope that it will be useful,
   but WITHOUT ANY WARRANTY; without even the implied warranty of
   MERCHANTABILITY or FITNESS FOR A PARTICULAR PURPOSE.
   
   FOR NON-COMMERCIAL, ACADEMIA USE ONLY.
   
   Cite this work as:
   * S. Grimme, C. Bannwarth, P. Shushkov, J. Chem. Theory Comput., 2017,
     13, 1989-2009. DOI: 10.1021/acs.jctc.7b00118
   * C. Bannwarth, S. Ehlert and S. Grimme., J. Chem. Theory Comput., 2019,
     15, 1652-1671. DOI: 10.1021/acs.jctc.8b01176
   * P. Pracht, E. Caldeweyher, S. Ehlert, S. Grimme, ChemRxiv, 2019, preprint.
     DOI: 10.26434/chemrxiv.8326202.v1
   
   for DFT-D4:
   * E. Caldeweyher, C. Bannwarth and S. Grimme, J. Chem. Phys., 2017,
     147, 034112. DOI: 10.1063/1.4993215
   * E. Caldeweyher, S. Ehlert, A. Hansen, H. Neugebauer, S. Spicher,
     C. Bannwarth and S. Grimme, J. Chem. Phys., 2019, 150, 154122.
     DOI: 10.1063/1.5090222
   
   for sTDA-xTB:
   * S. Grimme and C. Bannwarth, J. Chem. Phys., 2016, 145, 054103.
     DOI: 10.1063/1.4959605
   
   in the mass-spec context:
   * V. Asgeirsson, C. Bauer and S. Grimme, Chem. Sci., 2017, 8, 4879.
     DOI: 10.1039/c7sc00601b
   
   for metadynamics refer to:
   * S. Grimme, J. Chem. Theory Comput., 2019, 155, 2847-2862
     DOI: 10.1021/acs.jctc.9b00143
   
   with help from (in alphabetical order)
   C. Bannwarth, F. Bohle, G. Brandenburg, E. Caldeweyher, M. Checinski,
   S. Dohm, S. Ehlert, S. Ehrlich, F. März, H. Neugebauer, J. Pisarek,
   P. Pracht, P. Shushkov, and S. Spicher.
   
 * started run on 2022/07/20 at 09:54:47.045     

           -------------------------------------------------
          |                Calculation Setup                |
           -------------------------------------------------

          program call               : xtb -c 0 -u 0 input.xyz
          coordinate file            : input.xyz
          omp threads                :                     1
          number of atoms            :                    24
          number of electrons        :                    60
          charge                     :                     0
          spin                       :                   0.0
          first test random number   :      0.39537840877062


molecular fragmentation (1/2 indicates fragments):
111111111111222222222222
# atoms in fragment 1/2:    12    12
 fragment masses (1/2) :       78.11       78.11
CMA distance (Bohr)    :  14.362
constraining FC (au)   :  0.0500

########################################################################
# WARNING! Please study the warnings concerning your input carefully
#  - XTBHOME is not set, using HOME instead
#  - XTBPATH is not set, using XTBHOME instead
########################################################################

           ------------------------------------------------- 
          |                 G F N 2 - x T B                 |
          | Geometry, Frequencies, Noncovalent interactions |
          |            JCTC 2019 parametrisation            |
           ------------------------------------------------- 
             k(s)              :                1.8500
             k(p)              :                2.2300
             k(d)              :                2.2300
             k(f)              :                2.0000
             kEN (H0ij)        :               -2.0000
             D4 a1             :                0.5200
             D4 a2             :                5.0000
             D4 s6             :                1.0000
             D4 s8             :                2.7000
             D4 s9             :                5.0000
             alphaj            :                2.0000

  Z AO/shell   Hii/eV     exponent
  1     Wed Apr 25 08:07:45 CEST 2018   EN: 2.200 GM2: 0.406  GM3: 0.0800  RAES: 1.40
     1s    -10.707211    1.230000
  6     Wed Apr 25 08:07:45 CEST 2018   EN: 2.550 GM2: 0.538  GM3: 0.1500  RAES: 3.00
     2s    -13.970922    2.096432
     2p    -10.063292    1.800000

           ------------------------------------------------- 
          |        Self-Consistent Charge Iterations        |
           ------------------------------------------------- 

          ...................................................
          :                      SETUP                      :
          :.................................................:
          :  # basis functions                  60          :
          :  # atomic orbitals                  60          :
          :  # shells                           36          :
          :  # electrons                        60          :
          :  max. iterations                   250          :
          :  Hamiltonian                  GFN2-xTB          :
          :  restarted?                      false          :
          :  GBSA solvation                  false          :
          :  PC potential                    false          :
          :  electronic temp.          300.0000000     K    :
          :  accuracy                    1.0000000          :
          :  -> integral cutoff          0.2500000E+02      :
          :  -> integral neglect         0.1000000E-07      :
          :  -> SCF convergence          0.1000000E-05 Eh   :
          :  -> wf. convergence          0.1000000E-03 e    :
          :  Broyden damping             0.4000000          :
          ...................................................

 iter      E             dE          RMSdq      gap      omega  full diag
   1    -32.3609298 -0.323609E+02  0.483E+00    4.95       0.0  T
   2    -32.3916803 -0.307505E-01  0.289E+00    4.94       1.0  T
   3    -32.3924669 -0.786650E-03  0.500E-01    4.93       1.0  T
   4    -32.3930816 -0.614698E-03  0.501E-02    4.93       1.0  T
   5    -32.3930817 -0.550999E-07  0.634E-03    4.93       3.2  T
   6    -32.3930817 -0.114168E-07  0.761E-04    4.93      26.8  T
   7    -32.3930817 -0.846896E-10  0.391E-05    4.93     521.7  T

   *** convergence criteria satisfied after 7 iterations ***

         #    Occupation            Energy/Eh            Energy/eV
      -------------------------------------------------------------
         1        2.0000           -0.6409660             -17.4416
       ...           ...                  ...                  ...
        24        2.0000           -0.4208254             -11.4512
        25        2.0000           -0.4208254             -11.4512
        26        2.0000           -0.4208252             -11.4512
        27        2.0000           -0.4018901             -10.9360
        28        2.0000           -0.4018900             -10.9360
        29        2.0000           -0.4018899             -10.9360
        30        2.0000           -0.4018898             -10.9360 (HOMO)
        31                         -0.2205966              -6.0027 (LUMO)
        32                         -0.2205965              -6.0027
        33                         -0.2205965              -6.0027
        34                         -0.2205964              -6.0027
        35                         -0.0893498              -2.4313
       ...                                ...                  ...
        60                          0.6746218              18.3574
      -------------------------------------------------------------
                  HL-Gap            0.1812932 Eh            4.9332 eV
             Fermi-level           -0.3112432 Eh           -8.4694 eV

 SCC (total)                   0 d,  0 h,  0 min,  0.027 sec
 SCC setup                      ...        0 min,  0.000 sec (  0.587%)
 Dispersion                     ...        0 min,  0.000 sec (  0.718%)
 integral evaluation            ...        0 min,  0.006 sec ( 20.682%)
 zeroth order Hamiltonian       ...        0 min,  0.000 sec (  0.192%)
 iterations                     ...        0 min,  0.005 sec ( 18.337%)
 molecular gradient             ...        0 min,  0.014 sec ( 53.128%)
 printout                       ...        0 min,  0.002 sec (  6.246%)

         :::::::::::::::::::::::::::::::::::::::::::::::::::::
         ::                     SUMMARY                     ::
         :::::::::::::::::::::::::::::::::::::::::::::::::::::
         :: total energy             -31.759033901365 Eh    ::
         :: gradient norm              0.000320926355 Eh/a0 ::
         :: HOMO-LUMO gap              4.933238803173 eV    ::
         ::.................................................::
         :: SCC energy               -32.393081666071 Eh    ::
         :: -> isotropic ES            0.001588353157 Eh    ::
         :: -> anisotropic ES          0.005122692180 Eh    ::
         :: -> anisotropic XC          0.024771509853 Eh    ::
         :: -> dispersion             -0.015894336130 Eh    ::
         :: repulsion energy           0.633690896272 Eh    ::
         :: add. restraining           0.000000000000 Eh    ::
         :::::::::::::::::::::::::::::::::::::::::::::::::::::

           -------------------------------------------------
          |                Property Printout                |
           -------------------------------------------------

    * Orbital Energies and Occupations

         #    Occupation            Energy/Eh            Energy/eV
      -------------------------------------------------------------
         1        2.0000           -0.6409660             -17.4416
       ...           ...                  ...                  ...
        18        2.0000           -0.4757584             -12.9460
        19        2.0000           -0.4757584             -12.9460
        20        2.0000           -0.4757582             -12.9460
        21        2.0000           -0.4740997             -12.9009
        22        2.0000           -0.4740995             -12.9009
        23        2.0000           -0.4208256             -11.4512
        24        2.0000           -0.4208254             -11.4512
        25        2.0000           -0.4208254             -11.4512
        26        2.0000           -0.4208252             -11.4512
        27        2.0000           -0.4018901             -10.9360
        28        2.0000           -0.4018900             -10.9360
        29        2.0000           -0.4018899             -10.9360
        30        2.0000           -0.4018898             -10.9360 (HOMO)
        31                         -0.2205966              -6.0027 (LUMO)
        32                         -0.2205965              -6.0027
        33                         -0.2205965              -6.0027
        34                         -0.2205964              -6.0027
        35                         -0.0893498              -2.4313
        36                         -0.0893496              -2.4313
        37                          0.1185882               3.2270
        38                          0.1185883               3.2270
        39                          0.1382352               3.7616
        40                          0.1382357               3.7616
        41                          0.1740563               4.7363
       ...                                ...                  ...
        60                          0.6746218              18.3574
      -------------------------------------------------------------
                  HL-Gap            0.1812932 Eh            4.9332 eV
             Fermi-level           -0.3112432 Eh           -8.4694 eV

     #   Z        covCN         q      C6AA      α(0)
     1   1 H      0.926     0.029     2.605     2.524
     2   6 C      2.920    -0.029    28.717     8.788
     3   6 C      2.920    -0.029    28.717     8.788
     4   1 H      0.926     0.029     2.605     2.524
     5   6 C      2.920    -0.029    28.717     8.788
     6   1 H      0.926     0.029     2.605     2.524
     7   6 C      2.920    -0.029    28.717     8.788
     8   1 H      0.926     0.029     2.605     2.524
     9   6 C      2.920    -0.029    28.717     8.788
    10   1 H      0.926     0.029     2.605     2.524
    11   6 C      2.920    -0.029    28.717     8.788
    12   1 H      0.926     0.029     2.605     2.524
    13   1 H      0.926     0.029     2.605     2.524
    14   6 C      2.920    -0.029    28.717     8.788
    15   6 C      2.920    -0.029    28.717     8.788
    16   1 H      0.926     0.029     2.605     2.524
    17   6 C      2.920    -0.029    28.717     8.788
    18   1 H      0.926     0.029     2.605     2.524
    19   6 C      2.920    -0.029    28.717     8.788
    20   1 H      0.926     0.029     2.605     2.524
    21   6 C      2.920    -0.029    28.717     8.788
    22   1 H      0.926     0.029     2.605     2.524
    23   6 C      2.920    -0.029    28.717     8.788
    24   1 H      0.926     0.029     2.605     2.524

 Mol. C6AA /au·bohr⁶  :       6997.976673
 Mol. C8AA /au·bohr⁸  :     170647.409667
 Mol. α(0) /au        :        135.740525


Wiberg/Mayer (AO) data.
largest (>0.10) Wiberg bond orders for each atom
          total WBO             WBO to atom ...
     1  H   0.999        C    2 0.972
     2  C   3.993        C    3 1.441    C   11 1.441    H    1 0.972    C    7 0.114
     3  C   3.993        C    2 1.441    C    5 1.441    H    4 0.972    C    9 0.114
     4  H   0.999        C    3 0.972
     5  C   3.993        C    7 1.441    C    3 1.441    H    6 0.972    C   11 0.114
     6  H   0.999        C    5 0.972
     7  C   3.993        C    5 1.441    C    9 1.441    H    8 0.972    C    2 0.114
     8  H   0.999        C    7 0.972
     9  C   3.993        C   11 1.441    C    7 1.441    H   10 0.972    C    3 0.114
    10  H   0.999        C    9 0.972
    11  C   3.993        C    9 1.441    C    2 1.441    H   12 0.972    C    5 0.114
    12  H   0.999        C   11 0.972
    13  H   0.999        C   14 0.972
    14  C   3.993        C   15 1.441    C   23 1.441    H   13 0.972    C   19 0.114
    15  C   3.993        C   14 1.441    C   17 1.441    H   16 0.972    C   21 0.114
    16  H   0.999        C   15 0.972
    17  C   3.993        C   19 1.441    C   15 1.441    H   18 0.972    C   23 0.114
    18  H   0.999        C   17 0.972
    19  C   3.993        C   17 1.441    C   21 1.441    H   20 0.972    C   14 0.114
    20  H   0.999        C   19 0.972
    21  C   3.993        C   23 1.441    C   19 1.441    H   22 0.972    C   15 0.114
    22  H   0.999        C   21 0.972
    23  C   3.993        C   21 1.441    C   14 1.441    H   24 0.972    C   17 0.114
    24  H   0.999        C   23 0.972

molecular dipole:
                 x           y           z       tot (Debye)
 q only:        0.000       0.000      -0.000
   full:        0.000       0.000      -0.000       0.000
molecular quadrupole (traceless):
                xx          xy          yy          xz          yz          zz
 q only:        1.279       0.000       1.279       0.000      -0.000      -2.558
  q+dip:        5.370      -0.000       5.370       0.000      -0.000     -10.740
   full:        2.701      -0.000       2.701       0.000      -0.000      -5.402


           -------------------------------------------------
          | TOTAL ENERGY              -31.759033901365 Eh   |
          | GRADIENT NORM               0.000320926355 Eh/α |
          | HOMO-LUMO GAP               4.933238803173 eV   |
           -------------------------------------------------

------------------------------------------------------------------------
 * finished run on 2022/07/20 at 09:54:47.109     
------------------------------------------------------------------------
 total:
 * wall-time:     0 d,  0 h,  0 min,  0.064 sec
 *  cpu-time:     0 d,  0 h,  0 min,  0.041 sec
 * ratio c/w:     0.647 speedup
 SCF:
 * wall-time:     0 d,  0 h,  0 min,  0.027 sec
 *  cpu-time:     0 d,  0 h,  0 min,  0.025 sec
 * ratio c/w:     0.945 speedup

