[Molden Format]
[Title]
[Atoms] AU
C      1     6  0.33668192709742E+01  0.12025376841184E+02 -0.19432636551902E+01
C      2     6  0.46839771322670E+01  0.12265569147642E+02  0.24778552785150E+00
S      3    16  0.47995233607494E+01  0.94867007313308E+01  0.19250004414845E+01
C      4     6  0.30270243310211E+01  0.79454912252310E+01 -0.38266304094006E+00
C      5     6  0.23957384923427E+01  0.53398365267237E+01 -0.12353597872470E+00
C      6     6  0.30195608209283E+01  0.37179440876691E+01  0.18049130762263E+01
C      7     6  0.20939332165595E+01  0.12665063762675E+01  0.14587229847824E+01
C      8     6  0.74435633300167E+00  0.97248830512837E+00 -0.73916367373905E+00
C      9     6 -0.45263106409026E+00 -0.12502972674334E+01 -0.16780779845805E+01
C     10     6 -0.18491819829924E+01 -0.15386724046876E+01 -0.38424084860399E+01
C     11     6 -0.27506840606721E+01 -0.40165373616401E+01 -0.41806907096810E+01
C     12     6 -0.20426931710288E+01 -0.55986593349959E+01 -0.22860879684955E+01
S     13    16 -0.25082022308319E+00 -0.40957280360235E+01 -0.32589100136432E-01
S     14    16  0.61440494925416E+00  0.37982939045809E+01 -0.24230863696617E+01
C     15     6  0.24193598736643E+01  0.95687062334499E+01 -0.23098139540058E+01
H     16     1  0.30806315146348E+01  0.13550973634573E+02 -0.32546667105891E+01
H     17     1  0.56022820265384E+01  0.13908449790739E+02  0.99531936786479E+00
H     18     1  0.41154971753109E+01  0.43049482222171E+01  0.34132274773927E+01
H     19     1  0.23921991736286E+01 -0.25898698076682E+00  0.27687519793415E+01
H     20     1 -0.22041411522491E+01 -0.71767224632097E-02 -0.51307195852085E+01
H     21     1 -0.38797145807670E+01 -0.45983944985743E+01 -0.57668809619480E+01
H     22     1 -0.24593691992480E+01 -0.75680093346185E+01 -0.20636182582997E+01
H     23     1  0.13289644672338E+01  0.89933507328701E+01 -0.39257023378006E+01
[GTO]
           1 0
 s           4   1.00000000000000     
   51.0493630955799      -0.163120632101274     
   8.79112274068875      -0.199110245810007     
  0.706404222589298       0.318820477536558     
  0.269228134134116       0.127065041842404     
 p           4   1.00000000000000     
   5.82636561408000       0.737164515452096     
   1.51068960187200       0.682163716148503     
  0.532564832880000       0.357830539292537     
  0.212023236906000       5.398303027584788E-002
 
           2 0
 s           4   1.00000000000000     
   51.0493630955799      -0.163120632101274     
   8.79112274068875      -0.199110245810007     
  0.706404222589298       0.318820477536558     
  0.269228134134116       0.127065041842404     
 p           4   1.00000000000000     
   5.82636561408000       0.737164515452096     
   1.51068960187200       0.682163716148503     
  0.532564832880000       0.357830539292537     
  0.212023236906000       5.398303027584788E-002
 
           3 0
 s           4   1.00000000000000     
   5.94059715667128      -8.937241731159805E-002
   1.67332031646937      -0.180826416098390     
  0.300052353376111       0.217239963388792     
  0.147626982610695       6.093036238655329E-002
 p           4   1.00000000000000     
   7.60402394306428      -0.258148203245547     
  0.785799530644415       0.290555694475872     
  0.355154539932778       0.228494836712103     
  0.171689541475341       3.379048730081900E-002
 d           3   1.00000000000000     
   1.51575937639239       0.574808919567051     
  0.475268595433768       0.261853961962925     
  0.185128831077629       3.488754942672512E-002
 
           4 0
 s           4   1.00000000000000     
   51.0493630955799      -0.163120632101274     
   8.79112274068875      -0.199110245810007     
  0.706404222589298       0.318820477536558     
  0.269228134134116       0.127065041842404     
 p           4   1.00000000000000     
   5.82636561408000       0.737164515452096     
   1.51068960187200       0.682163716148503     
  0.532564832880000       0.357830539292537     
  0.212023236906000       5.398303027584788E-002
 
           5 0
 s           4   1.00000000000000     
   51.0493630955799      -0.163120632101274     
   8.79112274068875      -0.199110245810007     
  0.706404222589298       0.318820477536558     
  0.269228134134116       0.127065041842404     
 p           4   1.00000000000000     
   5.82636561408000       0.737164515452096     
   1.51068960187200       0.682163716148503     
  0.532564832880000       0.357830539292537     
  0.212023236906000       5.398303027584788E-002
 
           6 0
 s           4   1.00000000000000     
   51.0493630955799      -0.163120632101274     
   8.79112274068875      -0.199110245810007     
  0.706404222589298       0.318820477536558     
  0.269228134134116       0.127065041842404     
 p           4   1.00000000000000     
   5.82636561408000       0.737164515452096     
   1.51068960187200       0.682163716148503     
  0.532564832880000       0.357830539292537     
  0.212023236906000       5.398303027584788E-002
 
           7 0
 s           4   1.00000000000000     
   51.0493630955799      -0.163120632101274     
   8.79112274068875      -0.199110245810007     
  0.706404222589298       0.318820477536558     
  0.269228134134116       0.127065041842404     
 p           4   1.00000000000000     
   5.82636561408000       0.737164515452096     
   1.51068960187200       0.682163716148503     
  0.532564832880000       0.357830539292537     
  0.212023236906000       5.398303027584788E-002
 
           8 0
 s           4   1.00000000000000     
   51.0493630955799      -0.163120632101274     
   8.79112274068875      -0.199110245810007     
  0.706404222589298       0.318820477536558     
  0.269228134134116       0.127065041842404     
 p           4   1.00000000000000     
   5.82636561408000       0.737164515452096     
   1.51068960187200       0.682163716148503     
  0.532564832880000       0.357830539292537     
  0.212023236906000       5.398303027584788E-002
 
           9 0
 s           4   1.00000000000000     
   51.0493630955799      -0.163120632101274     
   8.79112274068875      -0.199110245810007     
  0.706404222589298       0.318820477536558     
  0.269228134134116       0.127065041842404     
 p           4   1.00000000000000     
   5.82636561408000       0.737164515452096     
   1.51068960187200       0.682163716148503     
  0.532564832880000       0.357830539292537     
  0.212023236906000       5.398303027584788E-002
 
          10 0
 s           4   1.00000000000000     
   51.0493630955799      -0.163120632101274     
   8.79112274068875      -0.199110245810007     
  0.706404222589298       0.318820477536558     
  0.269228134134116       0.127065041842404     
 p           4   1.00000000000000     
   5.82636561408000       0.737164515452096     
   1.51068960187200       0.682163716148503     
  0.532564832880000       0.357830539292537     
  0.212023236906000       5.398303027584788E-002
 
          11 0
 s           4   1.00000000000000     
   51.0493630955799      -0.163120632101274     
   8.79112274068875      -0.199110245810007     
  0.706404222589298       0.318820477536558     
  0.269228134134116       0.127065041842404     
 p           4   1.00000000000000     
   5.82636561408000       0.737164515452096     
   1.51068960187200       0.682163716148503     
  0.532564832880000       0.357830539292537     
  0.212023236906000       5.398303027584788E-002
 
          12 0
 s           4   1.00000000000000     
   51.0493630955799      -0.163120632101274     
   8.79112274068875      -0.199110245810007     
  0.706404222589298       0.318820477536558     
  0.269228134134116       0.127065041842404     
 p           4   1.00000000000000     
   5.82636561408000       0.737164515452096     
   1.51068960187200       0.682163716148503     
  0.532564832880000       0.357830539292537     
  0.212023236906000       5.398303027584788E-002
 
          13 0
 s           4   1.00000000000000     
   5.94059715667128      -8.937241731159805E-002
   1.67332031646937      -0.180826416098390     
  0.300052353376111       0.217239963388792     
  0.147626982610695       6.093036238655329E-002
 p           4   1.00000000000000     
   7.60402394306428      -0.258148203245547     
  0.785799530644415       0.290555694475872     
  0.355154539932778       0.228494836712103     
  0.171689541475341       3.379048730081900E-002
 d           3   1.00000000000000     
   1.51575937639239       0.574808919567051     
  0.475268595433768       0.261853961962925     
  0.185128831077629       3.488754942672512E-002
 
          14 0
 s           4   1.00000000000000     
   5.94059715667128      -8.937241731159805E-002
   1.67332031646937      -0.180826416098390     
  0.300052353376111       0.217239963388792     
  0.147626982610695       6.093036238655329E-002
 p           4   1.00000000000000     
   7.60402394306428      -0.258148203245547     
  0.785799530644415       0.290555694475872     
  0.355154539932778       0.228494836712103     
  0.171689541475341       3.379048730081900E-002
 d           3   1.00000000000000     
   1.51575937639239       0.574808919567051     
  0.475268595433768       0.261853961962925     
  0.185128831077629       3.488754942672512E-002
 
          15 0
 s           4   1.00000000000000     
   51.0493630955799      -0.163120632101274     
   8.79112274068875      -0.199110245810007     
  0.706404222589298       0.318820477536558     
  0.269228134134116       0.127065041842404     
 p           4   1.00000000000000     
   5.82636561408000       0.737164515452096     
   1.51068960187200       0.682163716148503     
  0.532564832880000       0.357830539292537     
  0.212023236906000       5.398303027584788E-002
 
          16 0
 s           3   1.00000000000000     
   3.37022769753360       0.273591105889083     
  0.613891182214980       0.264605406538605     
  0.166142911484160       8.246594753408230E-002
 
          17 0
 s           3   1.00000000000000     
   3.37022769753360       0.273591105889083     
  0.613891182214980       0.264605406538605     
  0.166142911484160       8.246594753408230E-002
 
          18 0
 s           3   1.00000000000000     
   3.37022769753360       0.273591105889083     
  0.613891182214980       0.264605406538605     
  0.166142911484160       8.246594753408230E-002
 
          19 0
 s           3   1.00000000000000     
   3.37022769753360       0.273591105889083     
  0.613891182214980       0.264605406538605     
  0.166142911484160       8.246594753408230E-002
 
          20 0
 s           3   1.00000000000000     
   3.37022769753360       0.273591105889083     
  0.613891182214980       0.264605406538605     
  0.166142911484160       8.246594753408230E-002
 
          21 0
 s           3   1.00000000000000     
   3.37022769753360       0.273591105889083     
  0.613891182214980       0.264605406538605     
  0.166142911484160       8.246594753408230E-002
 
          22 0
 s           3   1.00000000000000     
   3.37022769753360       0.273591105889083     
  0.613891182214980       0.264605406538605     
  0.166142911484160       8.246594753408230E-002
 
          23 0
 s           3   1.00000000000000     
   3.37022769753360       0.273591105889083     
  0.613891182214980       0.264605406538605     
  0.166142911484160       8.246594753408230E-002
 
[MO]
Sym=     1a
Ene=  -0.733701556784825     
Spin= Alpha
Occup=     2.00000000
           1  5.143109916393157E-003
           2  1.261730018400756E-003
           3 -1.929893477752925E-003
           4  3.243641493150859E-003
           5  2.212488511439476E-002
           6 -1.437276704899423E-004
           7 -1.441971966490226E-002
           8  7.396273422457091E-003
           9  0.214993173083479     
          10 -7.133592560341331E-004
          11  1.116519787803509E-003
          12 -1.853521631713600E-003
          13  1.234538335816374E-004
          14  2.759368092207259E-004
          15 -3.993906428023633E-004
          16 -1.691679270099162E-004
          17 -6.222734903593643E-004
          18 -1.855588795599665E-004
          19  1.087798935660881E-002
          20  1.337942169517413E-002
          21  1.930031870687982E-002
          22  1.334565986334713E-002
          23 -9.003644373060661E-002
          24  3.505439971246217E-002
          25  3.445772640737330E-002
          26  4.310793727351560E-002
          27 -2.124914879409274E-002
          28  8.256241165134896E-003
          29 -1.026568602540193E-003
          30  1.491251551878028E-002
          31 -2.125254202763423E-002
          32  5.541418680476888E-003
          33 -8.247408312587990E-003
          34  1.389013730677062E-002
          35 -9.005888060587877E-002
          36  1.159083273617551E-004
          37 -5.803960358551582E-002
          38  3.004586124075935E-002
          39  1.069215506683783E-002
          40 -3.331940038352040E-003
          41 -2.582964515547003E-002
          42  6.708412495051738E-003
          43  3.661947757842736E-003
          44  4.166947237831988E-004
          45 -2.783277213476341E-003
          46  1.997313603937469E-003
          47  5.105252427433437E-003
          48  1.995573478814321E-003
          49 -2.475578732045186E-004
          50  3.398760161998326E-003
          51  2.196599337405199E-002
          52  8.750279854077128E-003
          53  8.549003219803153E-003
          54  1.044981833237869E-002
          55  0.213412087712634     
          56 -1.171348974729201E-003
          57  1.257739655814159E-004
          58 -1.930365928047536E-003
          59  3.718816241617878E-004
          60 -2.238495697368666E-004
          61 -1.480320544249211E-004
          62  1.794904436847901E-004
          63 -2.787039298538085E-004
          64  6.053378954564261E-004
          65 -0.848331876366559     
          66 -4.469640396320950E-003
          67  3.025366857131730E-003
          68 -9.476890098934187E-003
          69  1.236873497691437E-003
          70 -2.697897480853110E-003
          71  1.461023983161673E-003
          72 -1.955794227519608E-003
          73 -5.505817415066826E-004
          74 -5.801127283290266E-004
          75  3.703282909322023E-003
          76  1.882219578601356E-003
          77  1.265920065232463E-003
          78  2.639305048948179E-003
          79 -6.220276058863266E-004
          80 -3.225265329718283E-003
          81  8.305281370572431E-005
          82  9.994945288332073E-005
          83  7.011005354202711E-003
          84 -6.176741560714921E-004
          85 -3.201429510452362E-003
          86  7.006237318293041E-003
Sym=     2a
Ene=  -0.732958977439936     
Spin= Alpha
Occup=     2.00000000
           1  1.552698723507199E-002
           2  3.837694672769623E-003
           3 -6.401912170043013E-003
           4  1.014786504292826E-002
           5  6.752984142384585E-002
           6 -6.208619987251370E-004
           7 -4.444184079710570E-002
           8  2.247868348397735E-002
           9  0.654880647088453     
          10 -3.553804870368828E-003
          11  1.596749136004102E-003
          12 -7.124651758102054E-003
          13 -6.330964076778502E-004
          14  2.078882972212501E-003
          15 -1.445786564534651E-003
          16  1.555429761680751E-003
          17 -1.171785885429554E-005
          18  8.509419505014619E-004
          19  7.186870614829163E-002
          20  2.591362694160017E-002
          21  2.423183750570843E-002
          22  3.283362757437301E-002
          23  1.081231963878593E-002
          24  3.407686239708821E-003
          25  8.520352135782438E-003
          26  1.520252186596754E-003
          27  1.532137635481096E-003
          28 -1.729258483180632E-004
          29  1.374851052929530E-003
          30 -1.012593551046594E-003
          31 -9.781427174001855E-004
          32  7.467778640512690E-004
          33  7.905781576841441E-004
          34  9.089732362318139E-004
          35 -8.188569334122736E-003
          36  2.849343460338678E-003
          37  9.511274823645667E-003
          38  2.463803671736043E-004
          39 -6.785529242404530E-002
          40 -1.704537084413948E-003
          41  4.064229908592783E-002
          42 -2.158889154180527E-002
          43 -1.551670258050513E-002
          44 -4.555482275203922E-003
          45  5.723466168894711E-003
          46 -1.014380776571838E-002
          47 -1.472718960885150E-002
          48 -6.112807186046191E-003
          49  4.239839446808953E-004
          50 -1.025310821823820E-002
          51 -6.406379405445103E-002
          52 -2.565549816967165E-002
          53 -2.536291688277124E-002
          54 -3.050846349801155E-002
          55 -0.621154881375975     
          56  3.199715467251681E-003
          57 -2.800596031338506E-003
          58  6.411389308031968E-003
          59  7.200899564587702E-004
          60 -2.117072980651147E-003
          61  1.396983024192377E-003
          62 -1.349308091763435E-003
          63  1.542663848907991E-004
          64 -5.831710962920153E-004
          65  9.592149156661121E-003
          66  4.695149498554874E-004
          67  1.049894262296669E-003
          68  2.791975263955973E-004
          69  1.953917667454213E-004
          70 -3.445835611486178E-004
          71  1.491917944031965E-004
          72  2.976670166469185E-004
          73  3.631145755471434E-004
          74  7.237757430497838E-004
          75  1.640207418162649E-002
          76  6.200775941454566E-003
          77 -1.303813131769727E-003
          78  1.160185213564972E-002
          79 -1.750054382593644E-003
          80 -9.739516903068171E-003
          81 -5.990586349548838E-003
          82  5.634471462899921E-003
          83  1.420857051997292E-003
          84  1.660630234697824E-003
          85  9.237354508681617E-003
          86 -1.674855389322948E-003
Sym=     3a
Ene=  -0.732865788555657     
Spin= Alpha
Occup=     2.00000000
           1 -1.380639681242671E-002
           2 -3.415386786366978E-003
           3  5.756088886039562E-003
           4 -9.062299746390586E-003
           5 -6.011716342701239E-002
           6  5.741839498432917E-004
           7  3.961150046421158E-002
           8 -1.999848404730833E-002
           9 -0.582843876227556     
          10  3.316875222564953E-003
          11 -1.220069573980190E-003
          12  6.505848948321007E-003
          13  6.795993771801466E-004
          14 -1.997959170452812E-003
          15  1.318359793272665E-003
          16 -1.624262969258483E-003
          17 -2.020329580129268E-004
          18 -9.209263884689109E-004
          19 -6.829759926332041E-002
          20 -2.140426412578512E-002
          21 -1.768219476910454E-002
          22 -2.836051438963511E-002
          23 -4.166880108236545E-002
          24  8.657785693303343E-003
          25  3.466131457694714E-003
          26  1.324845826348967E-002
          27 -8.706936042369101E-003
          28  3.146391618553428E-003
          29 -1.591302136832682E-003
          30  6.305586474947924E-003
          31 -8.775863048140186E-003
          32  2.873451785695745E-003
          33 -2.389810629753561E-003
          34  6.250193372960494E-003
          35 -4.220103834855873E-002
          36  3.150991968943204E-003
          37 -1.080197398493350E-002
          38  1.124082853516548E-002
          39 -7.225096992423788E-002
          40 -3.141424465050517E-003
          41  3.617976582051281E-002
          42 -2.179869597919502E-002
          43 -1.607328793933248E-002
          44 -4.951861971942700E-003
          45  5.436808310790483E-003
          46 -1.065592078267464E-002
          47 -1.466839888473090E-002
          48 -6.132341789447268E-003
          49  3.861747109748659E-004
          50 -1.026742351011254E-002
          51 -6.388317464392561E-002
          52 -2.559931453832383E-002
          53 -2.534647263454555E-002
          54 -3.042452441912773E-002
          55 -0.619242448225622     
          56  3.163698420191392E-003
          57 -3.095933838990607E-003
          58  6.490770743264869E-003
          59  9.489208818815784E-004
          60 -2.470174152949618E-003
          61  1.521253271068040E-003
          62 -1.455555123014380E-003
          63  7.178143886012941E-005
          64 -4.346438874780134E-004
          65 -0.299423304487303     
          66 -1.860410156069026E-003
          67  1.294880552972991E-003
          68 -3.948255046117193E-003
          69  1.207111919984436E-003
          70 -2.061110547139157E-003
          71  8.539986271547213E-004
          72 -1.557946777725996E-003
          73 -8.414230327302274E-004
          74 -2.029772823032374E-004
          75 -1.516669621479422E-002
          76 -5.582629277521189E-003
          77  1.713027275374370E-003
          78 -1.073213511307563E-002
          79  1.541489460137928E-003
          80  8.659371126778824E-003
          81  5.960765417905775E-003
          82  6.285927398046162E-003
          83  4.185498151769327E-003
          84  1.638463721553857E-003
          85  9.199533323838051E-003
          86  4.097348984375884E-003
Sym=     4a
Ene=  -0.649320134612197     
Spin= Alpha
Occup=     2.00000000
           1  8.346161475964428E-002
           2  3.285354563444322E-003
           3 -2.023505788792614E-002
           4  1.651579056387360E-002
           5  6.253749824261552E-002
           6 -1.533451721914693E-002
           7 -9.904402164475653E-003
           8 -2.172516191795296E-002
           9 -1.893160520897076E-002
          10  1.721644396180591E-003
          11  3.183389404368312E-002
          12 -1.374543950641587E-002
          13  4.815552302159042E-004
          14  3.318907500399618E-003
          15 -3.800462730615522E-003
          16  7.091802653507505E-004
          17 -3.746220999033822E-003
          18  5.321867415535212E-004
          19 -3.174490885668476E-002
          20 -2.233563308356863E-004
          21  7.564537618461521E-002
          22 -3.999674884544631E-002
          23 -0.240535001838717     
          24 -3.767677990293479E-002
          25  7.937843502241049E-002
          26 -0.106701718407249     
          27 -0.359835590311524     
          28  6.251825567667554E-002
          29  3.791097893630542E-002
          30  8.944573436450304E-002
          31 -0.359790276854852     
          32  1.438920421781500E-002
          33 -8.969548333534744E-002
          34  7.137488962230241E-002
          35 -0.240427684241849     
          36 -7.037274346461019E-002
          37 -6.774699441512514E-003
          38 -0.118777131988722     
          39 -3.166446190711276E-002
          40 -4.622612463414368E-002
          41 -4.440288583645959E-002
          42 -5.660669724833734E-002
          43  6.969125703195053E-002
          44 -4.900855785800683E-003
          45 -2.652806429772468E-002
          46  3.968514867380176E-003
          47  8.340202876190722E-002
          48  1.464717272744164E-002
          49  8.274989346096480E-003
          50  2.022848586479808E-002
          51  6.246638522817749E-002
          52 -3.832621444858221E-003
          53  2.256143276837634E-002
          54 -1.674896186054607E-002
          55 -1.895531066505320E-002
          56 -1.840928860928981E-002
          57 -2.056929723540328E-002
          58 -2.097604107640569E-002
          59  1.407705191705375E-003
          60  1.361894953382278E-003
          61 -2.769600145087652E-003
          62  2.036173934143051E-003
          63 -2.348602728676011E-003
          64  3.817141908699616E-003
          65  0.234067664839195     
          66 -5.057085140928064E-002
          67  3.395841864224433E-002
          68 -0.105398147153043     
          69  1.131633670530664E-003
          70 -1.036328653520802E-002
          71  9.231652864677352E-003
          72 -6.837173909042569E-003
          73  4.011575024427993E-003
          74 -5.176994728056001E-003
          75  6.970033016551334E-002
          76  1.269267976642011E-002
          77  2.149852478299217E-002
          78  1.102010024388361E-002
          79  1.598151038200007E-002
          80  1.224167255619575E-002
          81 -7.159524192249707E-002
          82 -7.157946056824684E-002
          83  1.308222738133295E-002
          84  1.596864618956569E-002
          85  1.222540863025083E-002
          86  1.308291764019880E-002
Sym=     5a
Ene=  -0.648175726927459     
Spin= Alpha
Occup=     2.00000000
           1 -0.191920078305551     
           2  3.928779357507183E-003
           3  6.751041442660363E-002
           4 -2.881959515279269E-002
           5 -8.357576437937109E-002
           6  4.345721570139722E-002
           7  1.190712053866675E-002
           8  7.021107448298368E-002
           9  0.165303920329901     
          10  4.626445452145371E-002
          11  1.192600231227498E-002
          12  7.523401121946878E-002
          13  4.019214896547303E-004
          14 -4.991840211477631E-003
          15  4.589918721822901E-003
          16 -5.258506742841351E-003
          17  3.999749533703491E-004
          18 -5.236543687848539E-003
          19 -0.268741215424014     
          20  3.825706858291737E-002
          21 -2.526721961919513E-003
          22  6.887305929527995E-002
          23 -0.184078549091931     
          24 -1.390563918330013E-002
          25 -6.702430494099164E-002
          26  1.090573682555753E-002
          27 -5.307324302810557E-002
          28  7.082127095956750E-004
          29 -4.248148948639261E-002
          30  2.335117041574005E-002
          31  5.314615340904374E-002
          32 -2.615792305252134E-002
          33 -2.441063359060200E-002
          34 -3.273258490600336E-002
          35  0.184167057537781     
          36 -3.260252040353092E-002
          37 -5.452971048776915E-002
          38 -2.776731789244531E-002
          39  0.268887125377569     
          40 -2.650536398442341E-002
          41  4.045073780117518E-002
          42 -6.230231186857361E-002
          43  0.258479924511674     
          44  2.967849709671461E-002
          45 -3.631423397303757E-002
          46  6.561287821477595E-002
          47  0.192032217983232     
          48  3.915667600526311E-002
          49  4.394988919583614E-002
          50  4.411566119400581E-002
          51  8.362369072672296E-002
          52 -2.091182138237889E-002
          53  5.457714442756120E-002
          54 -5.958890906169373E-002
          55 -0.165348590070944     
          56 -2.274834385545519E-002
          57  5.766417057521926E-002
          58 -6.406427631237606E-002
          59 -2.223227854773821E-003
          60  7.938580620246580E-003
          61 -5.715352765472760E-003
          62  3.334166936149022E-003
          63 -2.777664653338479E-003
          64  4.088994246275730E-004
          65 -4.090660192873077E-005
          66 -3.107997383163295E-002
          67 -8.194283321640138E-002
          68 -1.148770114521707E-002
          69 -1.878100305268608E-003
          70  3.364869008628595E-003
          71 -1.486768703359986E-003
          72 -2.165105077342903E-003
          73 -2.665309330922538E-003
          74 -5.738293322883268E-003
          75 -0.258311199296656     
          76 -3.771908447173969E-002
          77  8.411494000103938E-003
          78 -7.073713665902077E-002
          79 -3.594272608939383E-002
          80 -1.241710838605027E-002
          81 -1.447392125265956E-002
          82  1.449033647678996E-002
          83  5.537992647641037E-002
          84  3.596045590884920E-002
          85  1.242193882939581E-002
          86 -5.534355977719303E-002
Sym=     6a
Ene=  -0.646316710328176     
Spin= Alpha
Occup=     2.00000000
           1 -0.239630217469918     
           2  1.496110460553121E-004
           3  7.340329831809439E-002
           4 -3.859511943959939E-002
           5 -0.121687294343469     
           6  5.207179468506908E-002
           7  1.548723074150127E-002
           8  8.347323182590125E-002
           9  0.171898717074554     
          10  4.452976185767947E-002
          11 -3.644880743837383E-003
          12  8.041969645362412E-002
          13  6.502995516575766E-004
          14 -7.147644322265172E-003
          15  6.497344770607595E-003
          16 -5.836075988539439E-003
          17  1.899458859674077E-003
          18 -5.143982452630047E-003
          19 -0.225459989311321     
          20  2.915841547553965E-002
          21 -3.677206922670907E-002
          22  7.095720846583786E-002
          23 -0.114874458599604     
          24 -1.935325343668802E-002
          25 -3.941991413507311E-002
          26 -1.292175773693123E-002
          27 -7.790929853620036E-002
          28  1.304583876061367E-002
          29 -3.944999846397972E-003
          30  2.483645202355775E-002
          31 -7.790798144110046E-002
          32  1.023314209637470E-002
          33 -1.169802651359152E-002
          34  2.368030824654306E-002
          35 -0.114836445623760     
          36  1.268660140355057E-002
          37  4.394074294931809E-002
          38 -1.436613183067169E-003
          39 -0.225351346707966     
          40  4.182346965640962E-002
          41 -1.041928743103090E-002
          42  7.327979384675305E-002
          43 -0.272888172701907     
          44 -1.946716761809808E-002
          45  5.792796888621232E-002
          46 -5.891535434332762E-002
          47 -0.239456371242785     
          48 -4.519143520330454E-002
          49 -4.322754509828482E-002
          50 -5.439495350361152E-002
          51 -0.121579451809126     
          52  2.427716310463593E-002
          53 -6.602391323903907E-002
          54  7.039435085346474E-002
          55  0.171750543755413     
          56  3.120823973507954E-002
          57 -4.658785161395138E-002
          58  7.283225513986116E-002
          59  1.844768312577249E-003
          60 -8.828831233072904E-003