      -----------------------------------------------------------      
     |                   =====================                   |     
     |                           x T B                           |     
     |                   =====================                   |     
     |                         S. Grimme                         |     
     |          Mulliken Center for Theoretical Chemistry        |     
     |                    University of Bonn                     |     
      -----------------------------------------------------------      

   * xtb version 6.5.0 (746241f) compiled by 'ehlert@majestix' on 2022-05-15

   xtb is free software: you can redistribute it and/or modify it under
   the terms of the GNU Lesser General Public License as published by
   the Free Software Foundation, either version 3 of the License, or
   (at your option) any later version.
   
   xtb is distributed in the hope that it will be useful,
   but WITHOUT ANY WARRANTY; without even the implied warranty of
   MERCHANTABILITY or FITNESS FOR A PARTICULAR PURPOSE.  See the
   GNU Lesser General Public License for more details.
   
   Cite this work as:
   * C. Bannwarth, E. Caldeweyher, S. Ehlert, A. Hansen, P. Pracht,
     J. Seibert, S. Spicher, S. Grimme, WIREs Comput. Mol. Sci., 2020, 11,
     e01493. DOI: 10.1002/wcms.1493
   
   for GFN2-xTB:
   * C. Bannwarth, S. Ehlert and S. Grimme., J. Chem. Theory Comput., 2019,
     15, 1652-1671. DOI: 10.1021/acs.jctc.8b01176
   for GFN1-xTB:
   * S. Grimme, C. Bannwarth, P. Shushkov, J. Chem. Theory Comput., 2017,
     13, 1989-2009. DOI: 10.1021/acs.jctc.7b00118
   for GFN0-xTB:
   * P. Pracht, E. Caldeweyher, S. Ehlert, S. Grimme, ChemRxiv, 2019, preprint.
     DOI: 10.26434/chemrxiv.8326202.v1
   for GFN-FF:
   * S. Spicher and S. Grimme, Angew. Chem. Int. Ed., 2020, 59, 15665-15673.
     DOI: 10.1002/anie.202004239
   
   for ALPB and GBSA implicit solvation:
   * S. Ehlert, M. Stahn, S. Spicher, S. Grimme, J. Chem. Theory Comput.,
     2021, 17, 4250-4261. DOI: 10.1021/acs.jctc.1c00471
   
   for DFT-D4:
   * E. Caldeweyher, C. Bannwarth and S. Grimme, J. Chem. Phys., 2017,
     147, 034112. DOI: 10.1063/1.4993215
   * E. Caldeweyher, S. Ehlert, A. Hansen, H. Neugebauer, S. Spicher,
     C. Bannwarth and S. Grimme, J. Chem. Phys., 2019, 150, 154122.
     DOI: 10.1063/1.5090222
   * E. Caldeweyher, J.-M. Mewes, S. Ehlert and S. Grimme, Phys. Chem. Chem. Phys.
     2020, 22, 8499-8512. DOI: 10.1039/D0CP00502A
   
   for sTDA-xTB:
   * S. Grimme and C. Bannwarth, J. Chem. Phys., 2016, 145, 054103.
     DOI: 10.1063/1.4959605
   
   in the mass-spec context:
   * V. Asgeirsson, C. Bauer and S. Grimme, Chem. Sci., 2017, 8, 4879.
     DOI: 10.1039/c7sc00601b
   * J. Koopman and S. Grimme, ACS Omega 2019, 4, 12, 15120-15133.
     DOI: 10.1021/acsomega.9b02011
   
   for metadynamics refer to:
   * S. Grimme, J. Chem. Theory Comput., 2019, 155, 2847-2862
     DOI: 10.1021/acs.jctc.9b00143
   
   for SPH calculations refer to:
   * S. Spicher and S. Grimme, J. Chem. Theory Comput., 2021, 17, 1701-1714
     DOI: 10.1021/acs.jctc.0c01306
   
   with help from (in alphabetical order)
   P. Atkinson, C. Bannwarth, F. Bohle, G. Brandenburg, E. Caldeweyher
   M. Checinski, S. Dohm, S. Ehlert, S. Ehrlich, I. Gerasimov, C. Hölzer
   A. Katbashev, J. Koopman, C. Lavigne, S. Lehtola, F. März, M. Müller,
   F. Musil, H. Neugebauer, J. Pisarek, C. Plett, P. Pracht, F. Pultar,
   J. Seibert, P. Shushkov, S. Spicher, M. Stahn, M. Steiner, T. Strunk,
   J. Stückrath, T. Rose, and J. Unsleber
   
 * started run on 2022/07/20 at 15:45:08.763     

           -------------------------------------------------
          |                Calculation Setup                |
           -------------------------------------------------

          program call               : xtb -c 0 -u 0 --opt --molden oligothiophene_n3.xyz
          coordinate file            : oligothiophene_n3.xyz
          omp threads                :                    16

   ID    Z sym.   atoms
    1    6 C      1, 2, 4-12, 15
    2   16 S      3, 13, 14
    3    1 H      16-23

           -------------------------------------------------
          |                 G F N 2 - x T B                 |
           -------------------------------------------------

        Reference                      10.1021/acs.jctc.8b01176
      * Hamiltonian:
        H0-scaling (s, p, d)           1.850000    2.230000    2.230000
        zeta-weighting                 0.500000
      * Dispersion:
        s8                             2.700000
        a1                             0.520000
        a2                             5.000000
        s9                             5.000000
      * Repulsion:
        kExp                           1.500000    1.000000
        rExp                           1.000000
      * Coulomb:
        alpha                          2.000000
        third order                    shell-resolved
        anisotropic                    true
        a3                             3.000000
        a5                             4.000000
        cn-shift                       1.200000
        cn-exp                         4.000000
        max-rad                        5.000000


          ...................................................
          :                      SETUP                      :
          :.................................................:
          :  # basis functions                  86          :
          :  # atomic orbitals                  83          :
          :  # shells                           41          :
          :  # electrons                        74          :
          :  max. iterations                   250          :
          :  Hamiltonian                  GFN2-xTB          :
          :  restarted?                      false          :
          :  GBSA solvation                  false          :
          :  PC potential                    false          :
          :  electronic temp.          300.0000000     K    :
          :  accuracy                    1.0000000          :
          :  -> integral cutoff          0.2500000E+02      :
          :  -> integral neglect         0.1000000E-07      :
          :  -> SCF convergence          0.1000000E-05 Eh   :
          :  -> wf. convergence          0.1000000E-03 e    :
          :  Broyden damping             0.4000000          :
          ...................................................

 iter      E             dE          RMSdq      gap      omega  full diag
   1    -38.8704249 -0.388704E+02  0.661E+00    0.03       0.0  T
   2    -38.7670546  0.103370E+00  0.723E+00    0.23       1.0  T
   3    -39.3765701 -0.609516E+00  0.531E+00    0.71       1.0  T
   4    -39.4343928 -0.578226E-01  0.304E+00    0.47       1.0  T
   5    -39.4338010  0.591755E-03  0.117E+00    0.44       1.0  T
   6    -39.4330161  0.784905E-03  0.658E-01    0.45       1.0  T
   7    -39.4358628 -0.284665E-02  0.307E-01    0.46       1.0  T
   8    -39.4365130 -0.650245E-03  0.167E-01    0.49       1.0  T
   9    -39.4368825 -0.369466E-03  0.838E-02    0.49       1.0  T
  10    -39.4370037 -0.121236E-03  0.208E-02    0.49       1.0  T
  11    -39.4370057 -0.199999E-05  0.847E-03    0.49       2.5  T
  12    -39.4370059 -0.165254E-06  0.409E-03    0.49       5.1  T
  13    -39.4370060 -0.111224E-06  0.213E-03    0.49       9.8  T
  14    -39.4370061 -0.538595E-07  0.119E-03    0.49      17.5  T
  15    -39.4370061 -0.278168E-08  0.457E-04    0.49      45.6  T
  16    -39.4370061 -0.188980E-08  0.144E-04    0.49     144.4  T

   *** convergence criteria satisfied after 16 iterations ***

         #    Occupation            Energy/Eh            Energy/eV
      -------------------------------------------------------------
         1        2.0000           -0.8886666             -24.1818
       ...           ...                  ...                  ...
        31        2.0000           -0.4267047             -11.6112
        32        2.0000           -0.4055517             -11.0356
        33        2.0000           -0.4023084             -10.9474
        34        2.0000           -0.3909447             -10.6381
        35        2.0000           -0.3671276              -9.9901
        36        2.0000           -0.3622334              -9.8569
        37        1.9999           -0.2217112              -6.0331 (HOMO)
        38        0.0001           -0.2035397              -5.5386 (LUMO)
        39                         -0.1944593              -5.2915
        40                         -0.1873387              -5.0977
        41                         -0.1837697              -5.0006
        42                         -0.1801079              -4.9010
       ...                                ...                  ...
        83                         14.0296111             381.7652
      -------------------------------------------------------------
                  HL-Gap            0.0181715 Eh            0.4945 eV
             Fermi-level           -0.2126255 Eh           -5.7858 eV

 SCC (total)                   0 d,  0 h,  0 min,  0.020 sec
 SCC setup                      ...        0 min,  0.000 sec (  0.527%)
 Dispersion                     ...        0 min,  0.000 sec (  0.578%)
 classical contributions        ...        0 min,  0.000 sec (  0.086%)
 integral evaluation            ...        0 min,  0.001 sec (  7.186%)
 iterations                     ...        0 min,  0.015 sec ( 78.117%)
 molecular gradient             ...        0 min,  0.003 sec ( 12.888%)
 printout                       ...        0 min,  0.000 sec (  0.538%)

         :::::::::::::::::::::::::::::::::::::::::::::::::::::
         ::                     SUMMARY                     ::
         :::::::::::::::::::::::::::::::::::::::::::::::::::::
         :: total energy             -35.289608870751 Eh    ::
         :: gradient norm              5.869124297172 Eh/a0 ::
         :: HOMO-LUMO gap              0.494471053479 eV    ::
         ::.................................................::
         :: SCC energy               -39.437006057817 Eh    ::
         :: -> isotropic ES            0.025847237533 Eh    ::
         :: -> anisotropic ES          0.008730375757 Eh    ::
         :: -> anisotropic XC          0.010068734055 Eh    ::
         :: -> dispersion             -0.028438025254 Eh    ::
         :: repulsion energy           4.147499623260 Eh    ::
         :: add. restraining           0.000000000000 Eh    ::
         :: total charge              -0.000000000000 e     ::
         :::::::::::::::::::::::::::::::::::::::::::::::::::::

      ----------------------------------------------------------- 
     |                   =====================                   |
     |                        A N C O P T                        |
     |                   =====================                   |
     |               Approximate Normal Coordinate               |
     |                Rational Function Optimizer                |
      ----------------------------------------------------------- 

          ...................................................
          :                      SETUP                      :
          :.................................................:
          :   optimization level            normal          :
          :   max. optcycles                   200          :
          :   ANC micro-cycles                  20          :
          :   degrees of freedom                63          :
          :.................................................:
          :   RF solver                   davidson          :
          :   write xtbopt.log                true          :
          :   linear?                        false          :
          :   energy convergence         0.5000000E-05 Eh   :
          :   grad. convergence          0.1000000E-02 Eh/α :
          :   maximium RF displ.         1.0000000          :
          :   Hlow (freq-cutoff)         0.1000000E-01      :
          :   Hmax (freq-cutoff)         5.0000000          :
          :   S6 in model hess.         20.0000000          :
          ...................................................

generating ANC from model Hessian ...
Using Lindh-Hessian (1995)
 Shifting diagonal of input Hessian by   4.932428173456818E-003
 Lowest  eigenvalues of input Hessian
    0.000000    0.000000    0.000000    0.000000    0.000000    0.000000
    0.010000    0.011507    0.012529    0.021557    0.023911    0.034499
    0.045733    0.058475    0.069403    0.083907    0.096656    0.105741
 Highest eigenvalues
    6.773915    6.848429    6.891837    6.980019   12.553253   21.488695
 

........................................................................
.............................. CYCLE    1 ..............................
........................................................................
   1    -39.4370061 -0.394370E+02  0.612E-05    0.49       0.0  T
   2    -39.4370061  0.390799E-12  0.550E-05    0.49     379.3  T
   3    -39.4370061 -0.444160E-10  0.162E-05    0.49    1285.7  T
     SCC iter.                  ...        0 min,  0.004 sec
     gradient                   ...        0 min,  0.003 sec
 * total energy  :   -35.2896089 Eh     change       -0.8451195E-10 Eh
   gradient norm :     5.8691258 Eh/α   predicted     0.0000000E+00 (-100.00%)
   displ. norm   :     0.7033129 α      lambda       -0.4088018E+01
   maximum displ.:     0.4424574 α      in ANC's #61, #51, #58, ...

........................................................................
.............................. CYCLE    2 ..............................
........................................................................
   1    -39.5918149 -0.395918E+02  0.366E+00    0.44       0.0  T
   2    -39.5337822  0.580327E-01  0.306E+00    0.17       1.0  T
   3    -39.6255334 -0.917512E-01  0.197E+00    0.54       1.0  T
   4    -39.6495543 -0.240209E-01  0.639E-01    0.34       1.0  T
   5    -39.6542141 -0.465974E-02  0.348E-01    0.33       1.0  T
   6    -39.6543246 -0.110503E-03  0.114E-01    0.33       1.0  T
   7    -39.6543732 -0.486413E-04  0.771E-02    0.32       1.0  T
   8    -39.6544509 -0.776542E-04  0.489E-02    0.33       1.0  T
   9    -39.6544574 -0.652492E-05  0.322E-02    0.33       1.0  T
  10    -39.6544644 -0.700267E-05  0.125E-02    0.33       1.7  T
  11    -39.6544662 -0.183333E-05  0.450E-03    0.33       4.6  T
  12    -39.6544664 -0.142146E-06  0.184E-03    0.33      11.3  T
  13    -39.6544664 -0.343898E-07  0.681E-04    0.33      30.6  T
  14    -39.6544664 -0.323342E-08  0.265E-04    0.33      78.7  T
     SCC iter.                  ...        0 min,  0.014 sec
     gradient                   ...        0 min,  0.003 sec
 * total energy  :   -37.7639623 Eh     change       -0.2474353E+01 Eh
   gradient norm :     1.9957916 Eh/α   predicted    -0.3055077E+01 (  23.47%)
   displ. norm   :     0.4730754 α      lambda       -0.8357196E+00
   maximum displ.:     0.2303821 α      in ANC's #49, #51, #53, ...

........................................................................
.............................. CYCLE    3 ..............................
........................................................................
   1    -39.7117465 -0.397117E+02  0.167E+00    0.66       0.0  T
   2    -39.7140940 -0.234742E-02  0.115E+00    0.19       1.0  T
   3    -39.7217042 -0.761023E-02  0.783E-01    0.37       1.0  T
   4    -39.7262032 -0.449900E-02  0.250E-01    0.32       1.0  T
   5    -39.7265907 -0.387538E-03  0.145E-01    0.27       1.0  T
   6    -39.7268211 -0.230361E-03  0.694E-02    0.29       1.0  T
   7    -39.7268886 -0.675305E-04  0.245E-02    0.29       1.0  T
   8    -39.7268921 -0.348682E-05  0.121E-02    0.29       1.7  T
   9    -39.7268927 -0.633847E-06  0.621E-03    0.29       3.4  T
  10    -39.7268930 -0.300560E-06  0.261E-03    0.29       8.0  T
  11    -39.7268931 -0.433501E-07  0.816E-04    0.29      25.6  T
  12    -39.7268931 -0.983260E-08  0.281E-04    0.29      74.3  T
     SCC iter.                  ...        0 min,  0.012 sec
     gradient                   ...        0 min,  0.003 sec
 * total energy  :   -38.3833886 Eh     change       -0.6194263E+00 Eh
   gradient norm :     1.1426434 Eh/α   predicted    -0.5113779E+00 ( -17.44%)
   displ. norm   :     0.5600763 α      lambda       -0.5345680E+00
   maximum displ.:     0.2634449 α      in ANC's #53, #9, #27, ...

........................................................................
.............................. CYCLE    4 ..............................
........................................................................
   1    -39.7990078 -0.397990E+02  0.178E+00    1.08       0.0  T
   2    -39.8053701 -0.636227E-02  0.114E+00    0.67       1.0  T
   3    -39.8069015 -0.153137E-02  0.624E-01    0.87       1.0  T
   4    -39.8111998 -0.429828E-02  0.177E-01    0.76       1.0  T
   5    -39.8112612 -0.614197E-04  0.949E-02    0.75       1.0  T
   6    -39.8113832 -0.121975E-03  0.249E-02    0.76       1.0  T
   7    -39.8113898 -0.668329E-05  0.109E-02    0.76       1.9  T
   8    -39.8113910 -0.118942E-05  0.611E-03    0.76       3.4  T
   9    -39.8113915 -0.498061E-06  0.253E-03    0.76       8.2  T
  10    -39.8113916 -0.316542E-07  0.110E-03    0.76      19.0  T
  11    -39.8113916 -0.574646E-08  0.513E-04    0.76      40.6  T
  12    -39.8113916 -0.866891E-09  0.188E-04    0.76     111.2  T
     SCC iter.                  ...        0 min,  0.013 sec
     gradient                   ...        0 min,  0.003 sec
 * total energy  :   -38.8064258 Eh     change       -0.4230373E+00 Eh
   gradient norm :     0.7146679 Eh/α   predicted    -0.3511278E+00 ( -17.00%)
   displ. norm   :     0.5880346 α      lambda       -0.3669180E+00
   maximum displ.:     0.3439304 α      in ANC's #53, #9, #61, ...

........................................................................
.............................. CYCLE    5 ..............................
........................................................................
   1    -39.8660995 -0.398661E+02  0.195E+00    1.81       0.0  T
   2    -39.8684989 -0.239942E-02  0.109E+00    1.61       1.0  T
   3    -39.8638110  0.468797E-02  0.648E-01    1.79       1.0  T
   4    -39.8717462 -0.793528E-02  0.202E-01    1.65       1.0  T
   5    -39.8717596 -0.133105E-04  0.785E-02    1.66       1.0  T
   6    -39.8718876 -0.127998E-03  0.147E-02    1.66       1.4  T
   7    -39.8718891 -0.152788E-05  0.882E-03    1.66       2.4  T
   8    -39.8718895 -0.377490E-06  0.404E-03    1.66       5.2  T
   9    -39.8718895 -0.298902E-07  0.195E-03    1.66      10.7  T
  10    -39.8718895 -0.358697E-07  0.661E-04    1.66      31.5  T
  11    -39.8718895 -0.255465E-08  0.250E-04    1.66      83.4  T
     SCC iter.                  ...        0 min,  0.011 sec
     gradient                   ...        0 min,  0.003 sec
 * total energy  :   -39.0840644 Eh     change       -0.2776385E+00 Eh
   gradient norm :     0.4450086 Eh/α   predicted    -0.2468964E+00 ( -11.07%)
   displ. norm   :     0.5653874 α      lambda       -0.1890239E+00
   maximum displ.:     0.3452687 α      in ANC's #9, #53, #35, ...

........................................................................
.............................. CYCLE    6 ..............................
........................................................................
   1    -39.8846967 -0.398847E+02  0.122E+00    1.86       0.0  T
   2    -39.8855266 -0.829965E-03  0.764E-01    1.87       1.0  T
   3    -39.8826697  0.285698E-02  0.473E-01    1.88       1.0  T
   4    -39.8870420 -0.437237E-02  0.123E-01    1.87       1.0  T
   5    -39.8870532 -0.111341E-04  0.604E-02    1.88       1.0  T
   6    -39.8871144 -0.612502E-04  0.139E-02    1.87       1.5  T
   7    -39.8871161 -0.165305E-05  0.597E-03    1.87       3.5  T
   8    -39.8871161 -0.427355E-07  0.303E-03    1.87       6.9  T
   9    -39.8871161 -0.145151E-08  0.144E-03    1.87      14.5  T
  10    -39.8871161 -0.432182E-07  0.447E-04    1.87      46.7  T
  11    -39.8871161 -0.318722E-08  0.168E-04    1.87     123.9  T
     SCC iter.                  ...        0 min,  0.011 sec
     gradient                   ...        0 min,  0.003 sec
 * total energy  :   -39.2243874 Eh     change       -0.1403230E+00 Eh
   gradient norm :     0.2923389 Eh/α   predicted    -0.1247240E+00 ( -11.12%)
   displ. norm   :     0.5735732 α      lambda       -0.9525748E-01
   maximum displ.:     0.4326200 α      in ANC's #9, #53, #35, ...

........................................................................
.............................. CYCLE    7 ..............................
........................................................................
   1    -39.8911895 -0.398912E+02  0.757E-01    1.78       0.0  T
   2    -39.8915686 -0.379128E-03  0.513E-01    1.80       1.0  T
   3    -39.8906000  0.968596E-03  0.305E-01    1.79       1.0  T
   4    -39.8923693 -0.176930E-02  0.760E-02    1.79       1.0  T
   5    -39.8923936 -0.243247E-04  0.423E-02    1.80       1.0  T
   6    -39.8924203 -0.266702E-04  0.132E-02    1.80       1.6  T
   7    -39.8924216 -0.131420E-05  0.438E-03    1.80       4.8  T
   8    -39.8924216  0.538882E-07  0.236E-03    1.80       8.9  T
   9    -39.8924217 -0.860501E-07  0.785E-04    1.80      26.6  T
  10    -39.8924217 -0.115779E-07  0.266E-04    1.80      78.5  T
     SCC iter.                  ...        0 min,  0.010 sec
     gradient                   ...        0 min,  0.003 sec
 * total energy  :   -39.2975247 Eh     change       -0.7313727E-01 Eh
   gradient norm :     0.2230595 Eh/α   predicted    -0.6329814E-01 ( -13.45%)
   displ. norm   :     0.6092734 α      lambda       -0.6019703E-01
   maximum displ.:     0.4480590 α      in ANC's #9, #2, #1, ...

........................................................................
.............................. CYCLE    8 ..............................
........................................................................
   1    -39.9056703 -0.399057E+02  0.584E-01    1.80       0.0  T
   2    -39.9058192 -0.148829E-03  0.396E-01    1.81       1.0  T
   3    -39.9050079  0.811254E-03  0.245E-01    1.80       1.0  T
   4    -39.9062599 -0.125202E-02  0.546E-02    1.80       1.0  T
   5    -39.9062728 -0.128968E-04  0.328E-02    1.80       1.0  T
   6    -39.9062876 -0.147327E-04  0.111E-02    1.80       1.9  T
   7    -39.9062885 -0.907451E-06  0.385E-03    1.80       5.4  T
   8    -39.9062884  0.102553E-06  0.231E-03    1.80       9.0  T
   9    -39.9062885 -0.129593E-06  0.511E-04    1.80      40.8  T
  10    -39.9062885 -0.290979E-08  0.262E-04    1.80      79.5  T
     SCC iter.                  ...        0 min,  0.010 sec
     gradient                   ...        0 min,  0.003 sec
 * total energy  :   -39.3455336 Eh     change       -0.4800893E-01 Eh
   gradient norm :     0.1886280 Eh/α   predicted    -0.4127152E-01 ( -14.03%)
   displ. norm   :     0.6328455 α      lambda       -0.4483673E-01
   maximum displ.:     0.4138213 α      in ANC's #9, #1, #2, ...

........................................................................
.............................. CYCLE    9 ..............................
........................................................................
   1    -39.9293466 -0.399293E+02  0.535E-01    1.88       0.0  T
   2    -39.9293921 -0.454964E-04  0.341E-01    1.89       1.0  T
   3    -39.9284462  0.945924E-03  0.231E-01    1.89       1.0  T
   4    -39.9296354 -0.118921E-02  0.430E-02    1.88       1.0  T
   5    -39.9296327  0.269391E-05  0.271E-02    1.89       1.0  T
   6    -39.9296442 -0.114631E-04  0.780E-03    1.89       2.7  T
   7    -39.9296444 -0.270769E-06  0.382E-03    1.89       5.5  T
   8    -39.9296444  0.707358E-08  0.181E-03    1.89      11.5  T
   9    -39.9296445 -0.363410E-07  0.837E-04    1.89      24.9  T
  10    -39.9296445 -0.156979E-07  0.238E-04    1.89      87.8  T
     SCC iter.                  ...        0 min,  0.009 sec
     gradient                   ...        0 min,  0.003 sec
 * total energy  :   -39.3815531 Eh     change       -0.3601952E-01 Eh
   gradient norm :     0.1615414 Eh/α   predicted    -0.3139686E-01 ( -12.83%)
   displ. norm   :     0.6099098 α      lambda       -0.3483134E-01
   maximum displ.:     0.3296285 α      in ANC's #9, #1, #2, ...

........................................................................
.............................. CYCLE   10 ..............................
........................................................................
   1    -39.9616927 -0.399617E+02  0.529E-01    2.03       0.0  T
   2    -39.9617500 -0.572999E-04  0.303E-01    2.02       1.0  T
   3    -39.9612042  0.545805E-03  0.181E-01    2.03       1.0  T
   4    -39.9618425 -0.638349E-03  0.439E-02    2.03       1.0  T
   5    -39.9618455 -0.301639E-05  0.154E-02    2.03       1.4  T
   6    -39.9618474 -0.187901E-05  0.788E-03    2.03       2.6  T
   7    -39.9618477 -0.298366E-06  0.404E-03    2.03       5.2  T
   8    -39.9618478 -0.111721E-06  0.186E-03    2.03      11.2  T
   9    -39.9618479 -0.296680E-07  0.658E-04    2.03      31.7  T
  10    -39.9618479 -0.761951E-08  0.303E-04    2.03      68.8  T
     SCC iter.                  ...        0 min,  0.009 sec
     gradient                   ...        0 min,  0.003 sec
 * total energy  :   -39.4095000 Eh     change       -0.2794688E-01 Eh
   gradient norm :     0.1341823 Eh/α   predicted    -0.2389413E-01 ( -14.50%)
   displ. norm   :     0.5691764 α      lambda       -0.2749042E-01
   maximum displ.:     0.3026070 α      in ANC's #1, #2, #9, ...

........................................................................
.............................. CYCLE   11 ..............................
........................................................................
   1    -39.9997565 -0.399998E+02  0.540E-01    2.19       0.0  T
   2    -39.9999019 -0.145444E-03  0.291E-01    2.18       1.0  T
   3    -39.9996140  0.287924E-03  0.151E-01    2.19       1.0  T
   4    -39.9999720 -0.357983E-03  0.480E-02    2.19       1.0  T
   5    -39.9999788 -0.685249E-05  0.214E-02    2.19       1.0  T
   6    -39.9999811 -0.229882E-05  0.116E-02    2.19       1.8  T
   7    -39.9999828 -0.167898E-05  0.467E-03    2.19       4.5  T
   8    -39.9999828 -0.406259E-07  0.215E-03    2.19       9.7  T
   9    -39.9999829 -0.342723E-07  0.678E-04    2.19      30.7  T
  10    -39.9999829 -0.725230E-08  0.250E-04    2.19      83.5  T
     SCC iter.                  ...        0 min,  0.009 sec
     gradient                   ...        0 min,  0.003 sec
 * total energy  :   -39.4307166 Eh     change       -0.2121662E-01 Eh
   gradient norm :     0.1046962 Eh/α   predicted    -0.1819816E-01 ( -14.23%)
   displ. norm   :     0.5324854 α      lambda       -0.1816200E-01
   maximum displ.:     0.3343375 α      in ANC's #1, #2, #4, ...

........................................................................
.............................. CYCLE   12 ..............................
........................................................................
   1    -40.0334931 -0.400335E+02  0.468E-01    2.30       0.0  T
   2    -40.0336867 -0.193654E-03  0.254E-01    2.28       1.0  T
   3    -40.0334941  0.192566E-03  0.136E-01    2.29       1.0  T
   4    -40.0337654 -0.271270E-03  0.438E-02    2.29       1.0  T
   5    -40.0337734 -0.801164E-05  0.204E-02    2.29       1.0  T
   6    -40.0337751 -0.170625E-05  0.107E-02    2.29       1.9  T
   7    -40.0337766 -0.142964E-05  0.413E-03    2.29       5.1  T
   8    -40.0337766 -0.422195E-07  0.211E-03    2.29       9.9  T
   9    -40.0337766 -0.321536E-07  0.584E-04    2.29      35.7  T
  10    -40.0337766 -0.364727E-08  0.268E-04    2.29      77.7  T
     SCC iter.                  ...        0 min,  0.011 sec
     gradient                   ...        0 min,  0.003 sec
 * total energy  :   -39.4442088 Eh     change       -0.1349221E-01 Eh
   gradient norm :     0.0736438 Eh/α   predicted    -0.1165584E-01 ( -13.61%)
   displ. norm   :     0.5373220 α      lambda       -0.1075547E-01
   maximum displ.:     0.3560588 α      in ANC's #1, #2, #4, ...

........................................................................
.............................. CYCLE   13 ..............................
........................................................................
   1    -40.0533281 -0.400533E+02  0.321E-01    2.28       0.0  T
   2    -40.0534455 -0.117421E-03  0.184E-01    2.27       1.0  T
   3    -40.0533593  0.861907E-04  0.956E-02    2.27       1.0  T
   4    -40.0534855 -0.126181E-03  0.331E-02    2.27       1.0  T
   5    -40.0534932 -0.766361E-05  0.152E-02    2.27       1.4  T
   6    -40.0534946 -0.146882E-05  0.690E-03    2.27       3.0  T
   7    -40.0534952 -0.507359E-06  0.282E-03    2.27       7.4  T
   8    -40.0534952 -0.314524E-07  0.146E-03    2.27      14.3  T
   9    -40.0534952 -0.115829E-07  0.252E-04    2.27      82.7  T
  10    -40.0534952 -0.199805E-09  0.114E-04    2.27     182.8  T
     SCC iter.                  ...        0 min,  0.009 sec
     gradient                   ...        0 min,  0.003 sec
 * total energy  :   -39.4524722 Eh     change       -0.8263342E-02 Eh
   gradient norm :     0.0458490 Eh/α   predicted    -0.6930425E-02 ( -16.13%)
   displ. norm   :     0.5721071 α      lambda       -0.7648767E-02
   maximum displ.:     0.3645625 α      in ANC's #2, #1, #9, ...

........................................................................
.............................. CYCLE   14 ..............................
........................................................................
   1    -40.0597685 -0.400598E+02  0.250E-01    2.18       0.0  T
   2    -40.0598183 -0.498164E-04  0.148E-01    2.18       1.0  T
   3    -40.0597622  0.560479E-04  0.664E-02    2.18       1.0  T
   4    -40.0598309 -0.686699E-04  0.225E-02    2.18       1.0  T
   5    -40.0598369 -0.597369E-05  0.100E-02    2.18       2.1  T
   6    -40.0598377 -0.840018E-06  0.390E-03    2.18       5.3  T
   7    -40.0598379 -0.133604E-06  0.197E-03    2.18      10.6  T
   8    -40.0598379 -0.267639E-07  0.954E-04    2.18      21.9  T
   9    -40.0598379 -0.298402E-08  0.224E-04    2.18      92.9  T
     SCC iter.                  ...        0 min,  0.008 sec
     gradient                   ...        0 min,  0.003 sec
 * total energy  :   -39.4583869 Eh     change       -0.5914777E-02 Eh
   gradient norm :     0.0380400 Eh/α   predicted    -0.5076138E-02 ( -14.18%)
   displ. norm   :     0.5737174 α      lambda       -0.5008149E-02
   maximum displ.:     0.3875410 α      in ANC's #2, #1, #9, ...

........................................................................
.............................. CYCLE   15 ..............................
........................................................................
   1    -40.0573000 -0.400573E+02  0.232E-01    2.08       0.0  T
   2    -40.0573180 -0.179416E-04  0.134E-01    2.08       1.0  T
   3    -40.0572715  0.464832E-04  0.510E-02    2.08       1.0  T
   4    -40.0573260 -0.545550E-04  0.134E-02    2.08       1.6  T
   5    -40.0573278 -0.171657E-05  0.706E-03    2.08       3.0  T
   6    -40.0573283 -0.489390E-06  0.261E-03    2.08       8.0  T
   7    -40.0573283 -0.914006E-07  0.128E-03    2.08      16.4  T
   8    -40.0573284 -0.923036E-08  0.591E-04    2.08      35.3  T
   9    -40.0573284 -0.307075E-09  0.204E-04    2.08     102.0  T
     SCC iter.                  ...        0 min,  0.008 sec
     gradient                   ...        0 min,  0.003 sec
 * total energy  :   -39.4621550 Eh     change       -0.3768098E-02 Eh
   gradient norm :     0.0509538 Eh/α   predicted    -0.3328391E-02 ( -11.67%)
   displ. norm   :     0.5188992 α      lambda       -0.3082463E-02
   maximum displ.:     0.3530365 α      in ANC's #2, #1, #9, ...

........................................................................
.............................. CYCLE   16 ..............................
........................................................................
   1    -40.0539404 -0.400539E+02  0.190E-01    2.03       0.0  T
   2    -40.0539494 -0.898760E-05  0.108E-01    2.03       1.0  T
   3    -40.0539135  0.358338E-04  0.447E-02    2.03       1.0  T
   4    -40.0539568 -0.433187E-04  0.912E-03    2.03       2.3  T
   5    -40.0539568  0.698730E-07  0.502E-03    2.03       4.2  T
   6    -40.0539572 -0.406280E-06  0.148E-03    2.03      14.1  T
   7    -40.0539572 -0.232000E-07  0.847E-04    2.03      24.6  T
   8    -40.0539572 -0.379519E-08  0.380E-04    2.03      54.8  T
     SCC iter.                  ...        0 min,  0.007 sec
     gradient                   ...        0 min,  0.003 sec
 * total energy  :   -39.4645777 Eh     change       -0.2422633E-02 Eh
   gradient norm :     0.0587387 Eh/α   predicted    -0.1956230E-02 ( -19.25%)
   displ. norm   :     0.5185323 α      lambda       -0.3008359E-02
   maximum displ.:     0.3635646 α      in ANC's #1, #2, #9, ...

........................................................................
.............................. CYCLE   17 ..............................
........................................................................
   1    -40.0539662 -0.400540E+02  0.163E-01    2.00       0.0  T
   2    -40.0539761 -0.988049E-05  0.907E-02    2.01       1.0  T
   3    -40.0539517  0.243491E-04  0.411E-02    2.01       1.0  T
   4    -40.0539830 -0.312711E-04  0.878E-03    2.01       2.4  T
   5    -40.0539831 -0.979871E-07  0.274E-03    2.01       7.6  T
   6    -40.0539832 -0.582303E-07  0.154E-03    2.01      13.6  T
   7    -40.0539832 -0.421674E-07  0.567E-04    2.01      36.7  T
   8    -40.0539832 -0.392582E-09  0.361E-04    2.01      57.7  T
     SCC iter.                  ...        0 min,  0.007 sec
     gradient                   ...        0 min,  0.003 sec
 * total energy  :   -39.4670964 Eh     change       -0.2518707E-02 Eh
   gradient norm :     0.0570336 Eh/α   predicted    -0.1908622E-02 ( -24.22%)
   displ. norm   :     0.5455373 α      lambda       -0.3990026E-02
   maximum displ.:     0.3988854 α      in ANC's #1, #2, #9, ...

........................................................................
.............................. CYCLE   18 ..............................
........................................................................
   1    -40.0611051 -0.400611E+02  0.154E-01    2.02       0.0  T
   2    -40.0611291 -0.239817E-04  0.830E-02    2.02       1.0  T
   3    -40.0611143  0.148024E-04  0.423E-02    2.02       1.0  T
   4    -40.0611369 -0.226459E-04  0.142E-02    2.02       1.5  T
   5    -40.0611384 -0.143256E-05  0.715E-03    2.02       2.9  T
   6    -40.0611389 -0.559881E-06  0.243E-03    2.02       8.6  T
   7    -40.0611390 -0.107581E-06  0.730E-04    2.02      28.6  T
   8    -40.0611390 -0.481059E-08  0.410E-04    2.02      50.8  T
     SCC iter.                  ...        0 min,  0.007 sec
     gradient                   ...        0 min,  0.003 sec
 * total energy  :   -39.4703708 Eh     change       -0.3274404E-02 Eh
   gradient norm :     0.0432971 Eh/α   predicted    -0.2588783E-02 ( -20.94%)
   displ. norm   :     0.5573689 α      lambda       -0.3829605E-02
   maximum displ.:     0.4064012 α      in ANC's #1, #2, #9, ...

........................................................................
.............................. CYCLE   19 ..............................
........................................................................
   1    -40.0713950 -0.400714E+02  0.146E-01    2.06       0.0  T
   2    -40.0714227 -0.276456E-04  0.795E-02    2.07       1.0  T
   3    -40.0714099  0.127218E-04  0.396E-02    2.07       1.0  T
   4    -40.0714291 -0.191619E-04  0.172E-02    2.07       1.2  T
   5    -40.0714324 -0.328727E-05  0.745E-03    2.07       2.8  T
   6    -40.0714329 -0.484127E-06  0.213E-03    2.07       9.8  T
   7    -40.0714329 -0.410218E-07  0.113E-03    2.07      18.4  T
   8    -40.0714329 -0.830617E-08  0.657E-04    2.07      31.7  T
   9    -40.0714329 -0.183150E-08  0.170E-04    2.07     122.5  T
     SCC iter.                  ...        0 min,  0.008 sec
     gradient                   ...        0 min,  0.003 sec
 * total energy  :   -39.4733254 Eh     change       -0.2954568E-02 Eh
   gradient norm :     0.0315414 Eh/α   predicted    -0.2509669E-02 ( -15.06%)
   displ. norm   :     0.6163373 α      lambda       -0.2733872E-02
   maximum displ.:     0.4510638 α      in ANC's #1, #2, #9, ...

........................................................................
.............................. CYCLE   20 ..............................
........................................................................
   1    -40.0745475 -0.400745E+02  0.138E-01    2.08       0.0  T
   2    -40.0745582 -0.106847E-04  0.777E-02    2.08       1.0  T
   3    -40.0745473  0.109079E-04  0.293E-02    2.08       1.0  T
   4    -40.0745600 -0.127339E-04  0.118E-02    2.08       1.8  T
   5    -40.0745613 -0.134543E-05  0.607E-03    2.08       3.4  T
   6    -40.0745617 -0.381382E-06  0.246E-03    2.08       8.5  T
   7    -40.0745617 -0.143244E-07  0.132E-03    2.08      15.7  T
   8    -40.0745618 -0.150576E-07  0.586E-04    2.08      35.6  T
   9    -40.0745618 -0.146647E-08  0.177E-04    2.08     117.7  T
     SCC iter.                  ...        0 min,  0.008 sec
     gradient                   ...        0 min,  0.003 sec
 * total energy  :   -39.4755557 Eh     change       -0.2230315E-02 Eh
   gradient norm :     0.0309392 Eh/α   predicted    -0.1886211E-02 ( -15.43%)
   displ. norm   :     0.5944120 α      lambda       -0.2416893E-02
   maximum displ.:     0.4412487 α      in ANC's #1, #2, #9, ...
 * RMSD in coord.:     1.5911856 α      energy gain  -0.4185947E+01 Eh

generating ANC from model Hessian ...
Using Lindh-Hessian (1995)
 Shifting diagonal of input Hessian by   9.075599572494786E-003
 Lowest  eigenvalues of input Hessian
    0.000000    0.000000    0.000000    0.000000    0.000000    0.000000
    0.010000    0.010841    0.010978    0.013384    0.014890    0.018342
    0.021921    0.023524    0.028014    0.028117    0.030798    0.047737
 Highest eigenvalues
    1.815931    1.849796    1.894831    1.897529    1.996375    2.034797
 

........................................................................
.............................. CYCLE   21 ..............................
........................................................................
   1    -40.0804482 -0.400804E+02  0.139E-01    2.09       0.0  T
   2    -40.0804589 -0.106798E-04  0.795E-02    2.09       1.0  T
   3    -40.0804418  0.170635E-04  0.360E-02    2.09       1.0  T
   4    -40.0804637 -0.218427E-04  0.883E-03    2.09       2.4  T
   5    -40.0804640 -0.311876E-06  0.492E-03    2.09       4.2  T
   6    -40.0804642 -0.171278E-06  0.302E-03    2.09       6.9  T
   7    -40.0804642 -0.527451E-07  0.117E-03    2.09      17.9  T
   8    -40.0804642 -0.798314E-08  0.483E-04    2.09      43.2  T
   9    -40.0804642 -0.147389E-08  0.191E-04    2.09     109.4  T
     SCC iter.                  ...        0 min,  0.008 sec
     gradient                   ...        0 min,  0.003 sec
 * total energy  :   -39.4774541 Eh     change       -0.1898460E-02 Eh
   gradient norm :     0.0271422 Eh/α   predicted     0.0000000E+00 (-100.00%)
   displ. norm   :     0.2124337 α      lambda       -0.1537934E-02
   maximum displ.:     0.1586361 α      in ANC's #2, #11, #1, ...

........................................................................
.............................. CYCLE   22 ..............................
........................................................................
   1    -40.0830125 -0.400830E+02  0.137E-01    2.09       0.0  T
   2    -40.0830197 -0.724213E-05  0.749E-02    2.09       1.0  T
   3    -40.0830161  0.360831E-05  0.214E-02    2.09       1.0  T
   4    -40.0830205 -0.433931E-05  0.974E-03    2.09       2.1  T
   5    -40.0830212 -0.756951E-06  0.437E-03    2.09       4.8  T
   6    -40.0830214 -0.135392E-06  0.198E-03    2.09      10.5  T
   7    -40.0830214 -0.383982E-07  0.104E-03    2.09      20.0  T
   8    -40.0830214 -0.184068E-08  0.488E-04    2.09      42.7  T
   9    -40.0830214 -0.215158E-08  0.136E-04    2.09     152.8  T
     SCC iter.                  ...        0 min,  0.008 sec
     gradient                   ...        0 min,  0.003 sec
 * total energy  :   -39.4785925 Eh     change       -0.1138365E-02 Eh
   gradient norm :     0.0138051 Eh/α   predicted    -0.8039268E-03 ( -29.38%)
   displ. norm   :     0.3137047 α      lambda       -0.1042233E-02
   maximum displ.:     0.2769131 α      in ANC's #2, #11, #1, ...

........................................................................
.............................. CYCLE   23 ..............................
........................................................................
   1    -40.0852036 -0.400852E+02  0.120E-01    2.10       0.0  T
   2    -40.0852126 -0.903298E-05  0.671E-02    2.09       1.0  T
   3    -40.0852055  0.704381E-05  0.251E-02    2.09       1.0  T
   4    -40.0852147 -0.915523E-05  0.877E-03    2.09       2.4  T
   5    -40.0852154 -0.650810E-06  0.352E-03    2.09       5.9  T
   6    -40.0852154 -0.222725E-07  0.191E-03    2.09      10.9  T
   7    -40.0852154 -0.342031E-07  0.997E-04    2.09      20.9  T
   8    -40.0852154 -0.621725E-09  0.521E-04    2.09      40.0  T
     SCC iter.                  ...        0 min,  0.007 sec
     gradient                   ...        0 min,  0.002 sec
 * total energy  :   -39.4793239 Eh     change       -0.7313627E-03 Eh
   gradient norm :     0.0053790 Eh/α   predicted    -0.5726648E-03 ( -21.70%)
   displ. norm   :     0.2422194 α      lambda       -0.4256632E-03
   maximum displ.:     0.2271563 α      in ANC's #2, #1, #11, ...

........................................................................
.............................. CYCLE   24 ..............................
........................................................................
   1    -40.0863616 -0.400864E+02  0.569E-02    2.10       0.0  T
   2    -40.0863634 -0.177483E-05  0.331E-02    2.10       1.0  T
   3    -40.0863609  0.244282E-05  0.129E-02    2.10       1.6  T
   4    -40.0863640 -0.306350E-05  0.355E-03    2.10       5.9  T
   5    -40.0863641 -0.108707E-06  0.146E-03    2.10      14.2  T
   6    -40.0863641  0.411104E-08  0.969E-04    2.10      21.5  T
   7    -40.0863641 -0.121241E-07  0.415E-04    2.10      50.2  T
     SCC iter.                  ...        0 min,  0.006 sec
     gradient                   ...        0 min,  0.003 sec
 * total energy  :   -39.4796834 Eh     change       -0.3595419E-03 Eh
   gradient norm :     0.0072503 Eh/α   predicted    -0.2253195E-03 ( -37.33%)
   displ. norm   :     0.1893036 α      lambda       -0.3048244E-03
   maximum displ.:     0.1750878 α      in ANC's #2, #1, #5, ...

........................................................................
.............................. CYCLE   25 ..............................
........................................................................
   1    -40.0873884 -0.400874E+02  0.499E-02    2.11       0.0  T
   2    -40.0873889 -0.460461E-06  0.275E-02    2.11       1.0  T
   3    -40.0873887  0.242872E-06  0.590E-03    2.11       3.5  T
   4    -40.0873890 -0.305381E-06  0.315E-03    2.11       6.6  T
   5    -40.0873890 -0.775589E-07  0.754E-04    2.11      27.7  T
   6    -40.0873891 -0.701788E-08  0.375E-04    2.11      55.6  T
     SCC iter.                  ...        0 min,  0.006 sec
     gradient                   ...        0 min,  0.002 sec
 * total energy  :   -39.4799563 Eh     change       -0.2729353E-03 Eh
   gradient norm :     0.0062545 Eh/α   predicted    -0.1578749E-03 ( -42.16%)
   displ. norm   :     0.1918401 α      lambda       -0.2682357E-03
   maximum displ.:     0.1717540 α      in ANC's #2, #1, #5, ...

........................................................................
.............................. CYCLE   26 ..............................
........................................................................
   1    -40.0877044 -0.400877E+02  0.570E-02    2.11       0.0  T
   2    -40.0877051 -0.631291E-06  0.312E-02    2.11       1.0  T
   3    -40.0877046  0.466462E-06  0.738E-03    2.11       2.8  T
   4    -40.0877051 -0.544609E-06  0.388E-03    2.11       5.4  T
   5    -40.0877052 -0.899578E-07  0.154E-03    2.11      13.6  T
   6    -40.0877053 -0.444102E-07  0.409E-04    2.11      51.0  T
   7    -40.0877053 -0.644000E-09  0.253E-04    2.11      82.6  T
     SCC iter.                  ...        0 min,  0.006 sec
     gradient                   ...        0 min,  0.003 sec
 * total energy  :   -39.4801934 Eh     change       -0.2370507E-03 Eh
   gradient norm :     0.0040280 Eh/α   predicted    -0.1390544E-03 ( -41.34%)
   displ. norm   :     0.1930054 α      lambda       -0.2137524E-03
   maximum displ.:     0.1691148 α      in ANC's #2, #1, #5, ...

........................................................................
.............................. CYCLE   27 ..............................
........................................................................
   1    -40.0875162 -0.400875E+02  0.581E-02    2.11       0.0  T
   2    -40.0875169 -0.632471E-06  0.324E-02    2.11       1.0  T
   3    -40.0875155  0.134020E-05  0.942E-03    2.11       2.2  T
   4    -40.0875170 -0.150863E-05  0.399E-03    2.11       5.2  T
   5    -40.0875171 -0.980989E-07  0.157E-03    2.11      13.3  T
   6    -40.0875172 -0.406358E-07  0.468E-04    2.11      44.6  T
   7    -40.0875172 -0.176710E-08  0.240E-04    2.11      87.0  T
     SCC iter.                  ...        0 min,  0.010 sec
     gradient                   ...        0 min,  0.003 sec
 * total energy  :   -39.4803805 Eh     change       -0.1870942E-03 Eh
   gradient norm :     0.0024058 Eh/α   predicted    -0.1108672E-03 ( -40.74%)
   displ. norm   :     0.1768188 α      lambda       -0.1522877E-03
   maximum displ.:     0.1537605 α      in ANC's #2, #1, #5, ...

........................................................................
.............................. CYCLE   28 ..............................
........................................................................
   1    -40.0873875 -0.400874E+02  0.510E-02    2.10       0.0  T
   2    -40.0873879 -0.392663E-06  0.289E-02    2.10       1.0  T
   3    -40.0873863  0.163221E-05  0.959E-03    2.10       2.2  T
   4    -40.0873881 -0.182092E-05  0.335E-03    2.10       6.2  T
   5    -40.0873882 -0.683748E-07  0.116E-03    2.10      18.0  T
   6    -40.0873882 -0.193178E-07  0.395E-04    2.10      52.8  T
   7    -40.0873882 -0.130757E-08  0.201E-04    2.10     103.9  T
     SCC iter.                  ...        0 min,  0.006 sec
     gradient                   ...        0 min,  0.003 sec
 * total energy  :   -39.4805126 Eh     change       -0.1321152E-03 Eh
   gradient norm :     0.0017749 Eh/α   predicted    -0.7852477E-04 ( -40.56%)
   displ. norm   :     0.2213623 α      lambda       -0.9870282E-04
   maximum displ.:     0.1942845 α      in ANC's #2, #1, #5, ...

........................................................................
.............................. CYCLE   29 ..............................
........................................................................
   1    -40.0874259 -0.400874E+02  0.613E-02    2.09       0.0  T
   2    -40.0874262 -0.378748E-06  0.351E-02    2.09       1.0  T
   3    -40.0874233  0.294612E-05  0.126E-02    2.09       1.7  T
   4    -40.0874266 -0.329186E-05  0.353E-03    2.09       5.9  T
   5    -40.0874266 -0.576726E-07  0.931E-04    2.09      22.4  T
   6    -40.0874267 -0.116397E-07  0.390E-04    2.09      53.4  T
     SCC iter.                  ...        0 min,  0.006 sec
     gradient                   ...        0 min,  0.003 sec
 * total energy  :   -39.4806306 Eh     change       -0.1180238E-03 Eh
   gradient norm :     0.0018627 Eh/α   predicted    -0.5042646E-04 ( -57.27%)
   displ. norm   :     0.1355215 α      lambda       -0.4339850E-04
   maximum displ.:     0.1240968 α      in ANC's #2, #1, #11, ...

........................................................................
.............................. CYCLE   30 ..............................
........................................................................
   1    -40.0878708 -0.400879E+02  0.343E-02    2.09       0.0  T
   2    -40.0878709 -0.128208E-06  0.196E-02    2.09       1.1  T
   3    -40.0878702  0.746586E-06  0.659E-03    2.09       3.2  T
   4    -40.0878710 -0.838977E-06  0.205E-03    2.09      10.2  T
   5    -40.0878711 -0.169689E-07  0.634E-04    2.09      32.9  T
   6    -40.0878711 -0.720460E-08  0.237E-04    2.09      88.0  T
     SCC iter.                  ...        0 min,  0.006 sec
     gradient                   ...        0 min,  0.003 sec
 * total energy  :   -39.4806852 Eh     change       -0.5455163E-04 Eh
   gradient norm :     0.0014277 Eh/α   predicted    -0.2187714E-04 ( -59.90%)
   displ. norm   :     0.0967406 α      lambda       -0.2648879E-04
   maximum displ.:     0.0908648 α      in ANC's #2, #1, #3, ...

........................................................................
.............................. CYCLE   31 ..............................
........................................................................
   1    -40.0880991 -0.400881E+02  0.291E-02    2.10       0.0  T
   2    -40.0880992 -0.112682E-06  0.167E-02    2.10       1.2  T
   3    -40.0880989  0.267260E-06  0.413E-03    2.10       5.1  T
   4    -40.0880992 -0.296681E-06  0.163E-03    2.10      12.8  T
   5    -40.0880992 -0.190342E-07  0.586E-04    2.10      35.6  T
   6    -40.0880992 -0.372043E-08  0.270E-04    2.10      77.3  T
     SCC iter.                  ...        0 min,  0.005 sec
     gradient                   ...        0 min,  0.003 sec
 * total energy  :   -39.4807187 Eh     change       -0.3351121E-04 Eh
   gradient norm :     0.0007752 Eh/α   predicted    -0.1335202E-04 ( -60.16%)
   displ. norm   :     0.0888847 α      lambda       -0.2101540E-04
   maximum displ.:     0.0801303 α      in ANC's #2, #3, #5, ...

........................................................................
.............................. CYCLE   32 ..............................
........................................................................
   1    -40.0883092 -0.400883E+02  0.329E-02    2.10       0.0  T
   2    -40.0883093 -0.118747E-06  0.185E-02    2.10       1.1  T
   3    -40.0883093  0.554779E-07  0.308E-03    2.10       6.8  T
   4    -40.0883093 -0.508149E-07  0.187E-03    2.10      11.2  T
   5    -40.0883094 -0.390257E-07  0.438E-04    2.10      47.6  T
   6    -40.0883094 -0.215192E-08  0.212E-04    2.10      98.5  T
     SCC iter.                  ...        0 min,  0.006 sec
     gradient                   ...        0 min,  0.003 sec
 * total energy  :   -39.4807446 Eh     change       -0.2588125E-04 Eh
   gradient norm :     0.0006033 Eh/α   predicted    -0.1060309E-04 ( -59.03%)
   displ. norm   :     0.0933744 α      lambda       -0.1720818E-04
   maximum displ.:     0.0771079 α      in ANC's #2, #3, #5, ...

........................................................................
.............................. CYCLE   33 ..............................
........................................................................
   1    -40.0882356 -0.400882E+02  0.416E-02    2.10       0.0  T
   2    -40.0882357 -0.130152E-06  0.236E-02    2.10       1.0  T
   3    -40.0882357  0.465039E-07  0.332E-03    2.10       6.3  T
   4    -40.0882357 -0.899018E-08  0.231E-03    2.10       9.0  T
   5    -40.0882358 -0.799274E-07  0.388E-04    2.10      53.7  T
   6    -40.0882358 -0.172894E-08  0.186E-04    2.10     112.4  T
     SCC iter.                  ...        0 min,  0.005 sec
     gradient                   ...        0 min,  0.003 sec
 * total energy  :   -39.4807661 Eh     change       -0.2153534E-04 Eh
   gradient norm :     0.0007020 Eh/α   predicted    -0.8638362E-05 ( -59.89%)
   displ. norm   :     0.1069180 α      lambda       -0.1416834E-04
   maximum displ.:     0.0809056 α      in ANC's #2, #3, #5, ...

........................................................................
.............................. CYCLE   34 ..............................
........................................................................
   1    -40.0880588 -0.400881E+02  0.516E-02    2.10       0.0  T
   2    -40.0880590 -0.191358E-06  0.293E-02    2.10       1.0  T
   3    -40.0880589  0.860903E-07  0.414E-03    2.10       5.0  T
   4    -40.0880589 -0.232098E-07  0.287E-03    2.10       7.3  T
   5    -40.0880591 -0.129320E-06  0.443E-04    2.10      47.1  T
   6    -40.0880591 -0.255041E-08  0.201E-04    2.10     103.9  T
     SCC iter.                  ...        0 min,  0.005 sec
     gradient                   ...        0 min,  0.003 sec
 * total energy  :   -39.4807828 Eh     change       -0.1670977E-04 Eh
   gradient norm :     0.0005589 Eh/α   predicted    -0.7120520E-05 ( -57.39%)
   displ. norm   :     0.1071401 α      lambda       -0.8748946E-05
   maximum displ.:     0.0767111 α      in ANC's #2, #3, #5, ...

........................................................................
.............................. CYCLE   35 ..............................
........................................................................
   1    -40.0879011 -0.400879E+02  0.526E-02    2.09       0.0  T
   2    -40.0879013 -0.224239E-06  0.296E-02    2.09       1.0  T
   3    -40.0879011  0.178716E-06  0.481E-03    2.09       4.3  T
   4    -40.0879012 -0.122701E-06  0.313E-03    2.09       6.7  T
   5    -40.0879014 -0.138049E-06  0.453E-04    2.09      46.0  T
   6    -40.0879014 -0.266165E-08  0.208E-04    2.09     100.2  T
     SCC iter.                  ...        0 min,  0.005 sec
     gradient                   ...        0 min,  0.003 sec
 * total energy  :   -39.4807914 Eh     change       -0.8584841E-05 Eh
   gradient norm :     0.0003100 Eh/α   predicted    -0.4398836E-05 ( -48.76%)
   displ. norm   :     0.0481631 α      lambda       -0.2086488E-05
   maximum displ.:     0.0329990 α      in ANC's #3, #2, #1, ...

........................................................................
.............................. CYCLE   36 ..............................
........................................................................
   1    -40.0879691 -0.400880E+02  0.258E-02    2.09       0.0  T
   2    -40.0879692 -0.439445E-07  0.148E-02    2.09       1.4  T
   3    -40.0879692  0.203287E-07  0.192E-03    2.09      10.9  T
   4    -40.0879692 -0.152791E-07  0.121E-03    2.09      17.2  T
   5    -40.0879692 -0.204976E-07  0.242E-04    2.09      86.3  T
   6    -40.0879692 -0.769958E-09  0.110E-04    2.09     189.8  T
     SCC iter.                  ...        0 min,  0.006 sec
     gradient                   ...        0 min,  0.003 sec
 * total energy  :   -39.4807934 Eh     change       -0.1958267E-05 Eh
   gradient norm :     0.0002560 Eh/α   predicted    -0.1044534E-05 ( -46.66%)
   displ. norm   :     0.0476098 α      lambda        0.1627324E-05
   maximum displ.:     0.0325871 α      in ANC's #3, #2, #1, ...

   *** GEOMETRY OPTIMIZATION CONVERGED AFTER 36 ITERATIONS ***

------------------------------------------------------------------------
 total energy gain   :        -4.1911845 Eh    -2630.0080 kcal/mol
 total RMSD          :         1.9183201 a0        1.0151 Å
 total power (kW/mol):      -305.6653709 (step)********** (real)
------------------------------------------------------------------------

 ANCopt (total)                0 d,  0 h,  0 min,  0.455 sec
 optimizer setup                ...        0 min,  0.000 sec (  0.015%)
 model hessian                  ...        0 min,  0.004 sec (  0.947%)
 ANC generation                 ...        0 min,  0.001 sec (  0.157%)
 coordinate transformation      ...        0 min,  0.000 sec (  0.047%)
 single point calculation       ...        0 min,  0.444 sec ( 97.455%)
 optimization log               ...        0 min,  0.003 sec (  0.574%)
 hessian update                 ...        0 min,  0.001 sec (  0.194%)
 rational function              ...        0 min,  0.002 sec (  0.397%)

================
 final structure:
================
23
 xtb: 6.5.0 (746241f)
C            1.78164403143361        6.36355537689328       -1.02833084110562
C            2.47865395479348        6.49065967170562        0.13112245453096
S            2.53979838571234        5.02014583369123        1.01866636461469
C            1.60183229282976        4.20457288583385       -0.20249656072089
C            1.26777021343445        2.82571979989757       -0.06537242466789
C            1.59788277337534        1.96745128261156        0.95511886760248
C            1.10806173935921        0.67020631178599        0.77192296056943
C            0.39389640821692        0.51461864894507       -0.39114857127115
C           -0.23952204406402       -0.66162882078190       -0.88800062756052
C           -0.97854496421476       -0.81423037160832       -2.03331500579834
C           -1.45559931930592       -2.12546003852642       -2.21232624940332
C           -1.08094667497867       -2.96268293169750       -1.20974565505076
S           -0.13272834608961       -2.16736593872628       -0.01724540911608
S            0.32512909741224        2.00997057462167       -1.28224208687826
C            1.28027011011993        5.06354127658146       -1.22230090588904
H            1.63019999273894        7.17086643298366       -1.72229545233323
H            2.96459997750394        7.36003466826845        0.52670032704591
H            2.17782731671632        2.27808049332108        1.80620219666922
H            1.26589728662884       -0.13705000814276        1.46516045011421
H           -1.16638126738701       -0.00379775797652       -2.71505988003371
H           -2.05305654095578       -2.43336557539412       -3.05170198306186
H           -1.30144213344246       -4.00481807179257       -1.09201975429860
H            0.70325771016194        4.75907625750606       -2.07739221395855
 
 Bond Distances (Angstroems)
 ---------------------------
C1-C2=1.3588         C1-C15=1.4068        C1-H16=1.0753        C2-C1=1.3588         C2-S3=1.7187         C2-H17=1.0717        
S3-C2=1.7187         S3-C4=1.7425         C4-S3=1.7425         C4-C5=1.4254         C4-C15=1.3716        C5-C4=1.4254         
C5-C6=1.3737         C5-S14=1.7421        C6-C5=1.3737         C6-C7=1.3987         C6-H18=1.0757        C7-C6=1.3987         
C7-C8=1.3737         C7-H19=1.0757        C8-C7=1.3737         C8-C9=1.4254         C8-S14=1.7421        C9-C8=1.4254         
C9-C10=1.3716        C9-S13=1.7427        C10-C9=1.3716        C10-C11=1.4068       C10-H20=1.0756       C11-C10=1.4068       
C11-C12=1.3589       C11-H21=1.0753       C12-C11=1.3589       C12-S13=1.7186       C12-H22=1.0717       S13-C9=1.7427        
S13-C12=1.7186       S14-C5=1.7421        S14-C8=1.7421        C15-C1=1.4068        C15-C4=1.3716        C15-H23=1.0756       
H16-C1=1.0753        H17-C2=1.0717        H18-C6=1.0757        H19-C7=1.0757        H20-C10=1.0756       H21-C11=1.0753       
H22-C12=1.0717       H23-C15=1.0756       
 C  H  Rav=1.0746 sigma=0.0017  Rmin=1.0717  Rmax=1.0757     8
 C  C  Rav=1.3883 sigma=0.0239  Rmin=1.3588  Rmax=1.4254    11
 S  C  Rav=1.7344 sigma=0.0112  Rmin=1.7186  Rmax=1.7427     6
 
 selected bond angles (degree)
 --------------------
C15-C1-C2=112.76               H16-C1-C2=123.55               H16-C1-C15=123.68              S3-C2-C1=112.26                
H17-C2-C1=128.57               H17-C2-S3=119.17               C4-S3-C2= 91.11                C5-C4-S3=120.77                
C15-C4-S3=110.74               C15-C4-C5=128.49               C6-C5-C4=128.28                S14-C5-C4=120.84               
S14-C5-C6=110.88               C7-C6-C5=113.45                H18-C6-C5=122.47               H18-C6-C7=124.07               
C8-C7-C6=113.45                H19-C7-C6=124.07               H19-C7-C8=122.47               C9-C8-C7=128.29                
S14-C8-C7=110.88               S14-C8-C9=120.83               C10-C9-C8=128.49               S13-C9-C8=120.77               
S13-C9-C10=110.74              C11-C10-C9=113.12              H20-C10-C9=122.65              H20-C10-C11=124.23             
 
 selected dihedral angles (degree)
 ---------------------------------
S3-C2-C1-C15=  0.00           S3-C2-C1-H16=179.98           H17-C2-C1-C15=180.02          H17-C2-C1-H16=  0.00          
C4-S3-C2-C1=  0.04            C4-S3-C2-H17=180.00           C5-C4-S3-C2=179.89            C15-C4-S3-C2=359.95           
C6-C5-C4-S3=359.71            C6-C5-C4-C15=179.64           S14-C5-C4-S3=179.77           S14-C5-C4-C15=359.70          
C7-C6-C5-C4=180.15            C7-C6-C5-S14=  0.10           H18-C6-C5-C4=  0.15           H18-C6-C5-S14=180.09          
C8-C7-C6-C5=359.94            C8-C7-C6-H18=179.95           H19-C7-C6-C5=179.99           H19-C7-C6-H18=  0.00          
C9-C8-C7-C6=179.97            C9-C8-C7-H19=359.92           S14-C8-C7-C6=  0.00           S14-C8-C7-H19=179.94          
C10-C9-C8-C7=178.39           C10-C9-C8-S14=358.37          S13-C9-C8-C7=358.33           S13-C9-C8-S14=178.30          
C11-C10-C9-C8=179.95          C11-C10-C9-S13=  0.00         H20-C10-C9-C8=359.90          H20-C10-C9-S13=179.96         
           -------------------------------------------------
          |                Final Singlepoint                |
           -------------------------------------------------

          ...................................................
          :                      SETUP                      :
          :.................................................:
          :  # basis functions                  86          :
          :  # atomic orbitals                  83          :
          :  # shells                           41          :
          :  # electrons                        74          :
          :  max. iterations                   250          :
          :  Hamiltonian                  GFN2-xTB          :
          :  restarted?                      false          :
          :  GBSA solvation                  false          :
          :  PC potential                    false          :
          :  electronic temp.          300.0000000     K    :
          :  accuracy                    1.0000000          :
          :  -> integral cutoff          0.2500000E+02      :
          :  -> integral neglect         0.1000000E-07      :
          :  -> SCF convergence          0.1000000E-05 Eh   :
          :  -> wf. convergence          0.1000000E-03 e    :
          :  Broyden damping             0.4000000          :
          ...................................................

 iter      E             dE          RMSdq      gap      omega  full diag
   1    -40.0879692 -0.400880E+02  0.601E-05    2.09       0.0  T
   2    -40.0879692 -0.643041E-11  0.399E-05    2.09     522.1  T
   3    -40.0879692 -0.895994E-11  0.275E-05    2.09     757.9  T

   *** convergence criteria satisfied after 3 iterations ***

         #    Occupation            Energy/Eh            Energy/eV
      -------------------------------------------------------------
         1        2.0000           -0.7337016             -19.9650
       ...           ...                  ...                  ...
        31        2.0000           -0.4453776             -12.1193
        32        2.0000           -0.4349659             -11.8360
        33        2.0000           -0.4046390             -11.0108
        34        2.0000           -0.4004914             -10.8979
        35        2.0000           -0.4001998             -10.8900
        36        2.0000           -0.3958617             -10.7719
        37        2.0000           -0.3617588              -9.8440 (HOMO)
        38                         -0.2847963              -7.7497 (LUMO)
        39                         -0.2475055              -6.7350
        40                         -0.2168409              -5.9005
        41                         -0.2110746              -5.7436
        42                         -0.2086627              -5.6780
       ...                                ...                  ...
        83                          0.7054363              19.1959
      -------------------------------------------------------------
                  HL-Gap            0.0769626 Eh            2.0943 eV
             Fermi-level           -0.3232776 Eh           -8.7968 eV

 SCC (total)                   0 d,  0 h,  0 min,  0.007 sec
 SCC setup                      ...        0 min,  0.000 sec (  1.000%)
 Dispersion                     ...        0 min,  0.000 sec (  0.778%)
 classical contributions        ...        0 min,  0.000 sec (  0.096%)
 integral evaluation            ...        0 min,  0.001 sec ( 16.742%)
 iterations                     ...        0 min,  0.003 sec ( 41.970%)
 molecular gradient             ...        0 min,  0.003 sec ( 37.694%)
 printout                       ...        0 min,  0.000 sec (  1.529%)

         :::::::::::::::::::::::::::::::::::::::::::::::::::::
         ::                     SUMMARY                     ::
         :::::::::::::::::::::::::::::::::::::::::::::::::::::
         :: total energy             -39.480793353716 Eh    ::
         :: gradient norm              0.000256280622 Eh/a0 ::
         :: HOMO-LUMO gap              2.094258614860 eV    ::
         ::.................................................::
         :: SCC energy               -40.087969188470 Eh    ::
         :: -> isotropic ES            0.001896796035 Eh    ::
         :: -> anisotropic ES          0.000859278378 Eh    ::
         :: -> anisotropic XC          0.019144829676 Eh    ::
         :: -> dispersion             -0.029116986648 Eh    ::
         :: repulsion energy           0.607464695117 Eh    ::
         :: add. restraining           0.000000000000 Eh    ::
         :: total charge               0.000000000000 e     ::
         :::::::::::::::::::::::::::::::::::::::::::::::::::::

           -------------------------------------------------
          |                Property Printout                |
           -------------------------------------------------

    * Orbital Energies and Occupations

         #    Occupation            Energy/Eh            Energy/eV
      -------------------------------------------------------------
         1        2.0000           -0.7337016             -19.9650
       ...           ...                  ...                  ...
        25        2.0000           -0.4694071             -12.7732
        26        2.0000           -0.4661322             -12.6841
        27        2.0000           -0.4623712             -12.5818
        28        2.0000           -0.4564049             -12.4194
        29        2.0000           -0.4534173             -12.3381
        30        2.0000           -0.4498545             -12.2412
        31        2.0000           -0.4453776             -12.1193
        32        2.0000           -0.4349659             -11.8360
        33        2.0000           -0.4046390             -11.0108
        34        2.0000           -0.4004914             -10.8979
        35        2.0000           -0.4001998             -10.8900
        36        2.0000           -0.3958617             -10.7719
        37        2.0000           -0.3617588              -9.8440 (HOMO)
        38                         -0.2847963              -7.7497 (LUMO)
        39                         -0.2475055              -6.7350
        40                         -0.2168409              -5.9005
        41                         -0.2110746              -5.7436
        42                         -0.2086627              -5.6780
        43                         -0.1980492              -5.3892
        44                         -0.1809874              -4.9249
        45                         -0.1578934              -4.2965
        46                         -0.1456352              -3.9629
        47                         -0.1445476              -3.9333
        48                         -0.1161636              -3.1610
       ...                                ...                  ...
        83                          0.7054363              19.1959
      -------------------------------------------------------------
                  HL-Gap            0.0769626 Eh            2.0943 eV
             Fermi-level           -0.3232776 Eh           -8.7968 eV

     #   Z          covCN         q      C6AA      α(0)
     1   6 C        3.108    -0.041    28.879     8.805
     2   6 C        2.940    -0.019    28.491     8.754
     3  16 S        2.328    -0.031   142.328    20.079
     4   6 C        3.023     0.020    27.536     8.608
     5   6 C        3.022     0.021    27.503     8.602
     6   6 C        3.098    -0.048    29.073     8.836
     7   6 C        3.098    -0.048    29.073     8.836
     8   6 C        3.022     0.021    27.503     8.602
     9   6 C        3.023     0.020    27.537     8.608
    10   6 C        3.110    -0.051    29.100     8.838
    11   6 C        3.108    -0.041    28.879     8.805
    12   6 C        2.940    -0.019    28.491     8.754
    13  16 S        2.328    -0.031   142.328    20.079
    14  16 S        2.346    -0.045   142.918    20.121
    15   6 C        3.110    -0.051    29.100     8.838
    16   1 H        0.926     0.039     2.462     2.454
    17   1 H        0.926     0.045     2.377     2.411
    18   1 H        0.926     0.044     2.390     2.418
    19   1 H        0.926     0.044     2.390     2.418
    20   1 H        0.926     0.043     2.414     2.430
    21   1 H        0.926     0.039     2.462     2.454
    22   1 H        0.926     0.045     2.377     2.411
    23   1 H        0.926     0.043     2.415     2.430

 Mol. C6AA /au·bohr⁶  :      12578.536283
 Mol. C8AA /au·bohr⁸  :     406511.045095
 Mol. α(0) /au        :        184.589483


Wiberg/Mayer (AO) data.
largest (>0.10) Wiberg bond orders for each atom

 ---------------------------------------------------------------------------
     #   Z sym  total        # sym  WBO       # sym  WBO       # sym  WBO
 ---------------------------------------------------------------------------
     1   6 C    3.987 --     2 C    1.604    15 C    1.300    16 H    0.965
     2   6 C    3.926 --     1 C    1.604     3 S    1.193    17 H    0.970
     3  16 S    2.600 --     2 C    1.193     4 C    1.125
     4   6 C    3.952 --    15 C    1.507     5 C    1.162     3 S    1.125
     5   6 C    3.939 --     6 C    1.485     4 C    1.162    14 S    1.122
     6   6 C    3.986 --     5 C    1.485     7 C    1.336    18 H    0.961
     7   6 C    3.986 --     8 C    1.485     6 C    1.336    19 H    0.961
     8   6 C    3.939 --     7 C    1.485     9 C    1.162    14 S    1.122
     9   6 C    3.952 --    10 C    1.507     8 C    1.162    13 S    1.125
    10   6 C    3.972 --     9 C    1.507    11 C    1.300    20 H    0.962
    11   6 C    3.987 --    12 C    1.604    10 C    1.300    21 H    0.965
    12   6 C    3.926 --    11 C    1.604    13 S    1.193    22 H    0.970
    13  16 S    2.600 --    12 C    1.193     9 C    1.125
    14  16 S    2.570 --     5 C    1.122     8 C    1.122
    15   6 C    3.972 --     4 C    1.507     1 C    1.300    23 H    0.962
    16   1 H    0.998 --     1 C    0.965
    17   1 H    0.997 --     2 C    0.970
    18   1 H    0.998 --     6 C    0.961
    19   1 H    0.998 --     7 C    0.961
    20   1 H    0.998 --    10 C    0.962
    21   1 H    0.998 --    11 C    0.965
    22   1 H    0.997 --    12 C    0.970
    23   1 H    0.998 --    15 C    0.962
 ---------------------------------------------------------------------------

Topologies differ in total number of bonds
Writing topology from bond orders to xtbtopo.mol

MOs/occ written to file <molden.input>


molecular dipole:
                 x           y           z       tot (Debye)
 q only:       -0.038       0.025      -0.074
   full:       -0.152       0.100      -0.301       0.893
molecular quadrupole (traceless):
                xx          xy          yy          xz          yz          zz
 q only:       -2.867       2.663       4.405       1.641      -0.085      -1.539
  q+dip:       -6.194       4.742       8.502       3.328      -1.297      -2.308
   full:       -4.691       4.225       7.961       1.363      -0.512      -3.270

           -------------------------------------------------
          |                Geometry Summary                 |
           -------------------------------------------------

      molecular mass/u    :      248.3867190
   center of mass at/Å    :        0.7448460       1.7299566      -0.4216700
  moments of inertia/u·Å² :        0.2865435E+03   0.2690776E+04   0.2977174E+04
rotational constants/cm⁻¹ :        0.5883097E-01   0.6264970E-02   0.5662294E-02

 * 25 selected distances

     #   Z          #   Z                                           value/Å
     1   6 C        2   6 C                                       1.3587901
     2   6 C        3  16 S                                       1.7186868
     3  16 S        4   6 C                                       1.7424635
     4   6 C        5   6 C                                       1.4253549
     5   6 C        6   6 C                                       1.3736819
     6   6 C        7   6 C                                       1.3986888
     7   6 C        8   6 C                                       1.3736722
     8   6 C        9   6 C                                       1.4253559
     9   6 C       10   6 C                                       1.3715639
    10   6 C       11   6 C                                       1.4067514
    11   6 C       12   6 C                                       1.3588506
     9   6 C       13  16 S                                       1.7426601 (max)
    12   6 C       13  16 S                                       1.7186345
     5   6 C       14  16 S                                       1.7420653
     8   6 C       14  16 S                                       1.7420834
     1   6 C       15   6 C                                       1.4067826
     4   6 C       15   6 C                                       1.3715794
     1   6 C       16   1 H                                       1.0753016
     2   6 C       17   1 H                                       1.0716522 (min)
     6   6 C       18   1 H                                       1.0757180
     7   6 C       19   1 H                                       1.0757106
    10   6 C       20   1 H                                       1.0755742
    11   6 C       21   1 H                                       1.0753199
    12   6 C       22   1 H                                       1.0716919
    15   6 C       23   1 H                                       1.0755574

 * 3 distinct bonds (by element types)

   Z      Z             #   av. dist./Å        max./Å        min./Å
   1 H    6 C           8     1.0745657     1.0757180     1.0716522
   6 C    6 C          11     1.3882793     1.4253559     1.3587901
   6 C   16 S           6     1.7344323     1.7426601     1.7186345


optimized geometry written to: xtbopt.xyz


           -------------------------------------------------
          | TOTAL ENERGY              -39.480793353716 Eh   |
          | GRADIENT NORM               0.000256280622 Eh/α |
          | HOMO-LUMO GAP               2.094258614860 eV   |
           -------------------------------------------------

------------------------------------------------------------------------
 * finished run on 2022/07/20 at 15:45:09.276     
------------------------------------------------------------------------
 total:
 * wall-time:     0 d,  0 h,  0 min,  0.513 sec
 *  cpu-time:     0 d,  0 h,  0 min,  8.032 sec
 * ratio c/w:    15.659 speedup
 SCF:
 * wall-time:     0 d,  0 h,  0 min,  0.025 sec
 *  cpu-time:     0 d,  0 h,  0 min,  0.387 sec
 * ratio c/w:    15.705 speedup
 ANC optimizer:
 * wall-time:     0 d,  0 h,  0 min,  0.463 sec
 *  cpu-time:     0 d,  0 h,  0 min,  7.273 sec
 * ratio c/w:    15.701 speedup

