23
 energy: -39.480793353716 gnorm: 0.000256280622 xtb: 6.5.0 (746241f)
C            1.78164403143361        6.36355537689328       -1.02833084110562
C            2.47865395479348        6.49065967170562        0.13112245453096
S            2.53979838571234        5.02014583369123        1.01866636461469
C            1.60183229282976        4.20457288583385       -0.20249656072089
C            1.26777021343445        2.82571979989757       -0.06537242466789
C            1.59788277337534        1.96745128261156        0.95511886760248
C            1.10806173935921        0.67020631178599        0.77192296056943
C            0.39389640821692        0.51461864894507       -0.39114857127115
C           -0.23952204406402       -0.66162882078190       -0.88800062756052
C           -0.97854496421476       -0.81423037160832       -2.03331500579834
C           -1.45559931930592       -2.12546003852642       -2.21232624940332
C           -1.08094667497867       -2.96268293169750       -1.20974565505076
S           -0.13272834608961       -2.16736593872628       -0.01724540911608
S            0.32512909741224        2.00997057462167       -1.28224208687826
C            1.28027011011993        5.06354127658146       -1.22230090588904
H            1.63019999273894        7.17086643298366       -1.72229545233323
H            2.96459997750394        7.36003466826845        0.52670032704591
H            2.17782731671632        2.27808049332108        1.80620219666922
H            1.26589728662884       -0.13705000814276        1.46516045011421
H           -1.16638126738701       -0.00379775797652       -2.71505988003371
H           -2.05305654095578       -2.43336557539412       -3.05170198306186
H           -1.30144213344246       -4.00481807179257       -1.09201975429860
H            0.70325771016194        4.75907625750606       -2.07739221395855
