23
 energy: -35.289608870835 gnorm: 5.869125812451 xtb: 6.5.0 (746241f)
C            1.12860000000000        5.48440000000000       -1.46260000000000
C            1.88110000000000        5.99310000000000       -0.46720000000000
S            2.32760000000000        4.56780000000000        0.38460000000000
C            1.68130000000000        3.90130000000000       -0.25820000000000
C            1.54710000000000        2.51270000000000        0.35650000000000
C            1.82940000000000        1.85750000000000        1.21210000000000
C            1.23330000000000        0.56470000000000        1.08180000000000
C            0.62910000000000        0.49800000000000        0.14830000000000
C           -0.25930000000000       -0.39500000000000       -0.71060000000000
C           -0.62550000000000        0.05450000000000       -1.68080000000000
C           -1.16990000000000       -1.01370000000000       -2.45640000000000
C           -1.06840000000000       -2.09710000000000       -1.66180000000000
S           -0.38540000000000       -1.41350000000000       -0.23950000000000
S            1.06670000000000        1.52250000000000        0.18080000000000
C            1.10930000000000        4.07800000000000       -1.21690000000000
H            0.65390000000000        6.01240000000000       -2.28320000000000
H            2.22480000000000        6.98180000000000       -0.18860000000000
H            2.46480000000000        2.10800000000000        2.07300000000000
H            1.39500000000000       -0.21650000000000        1.83780000000000
H           -0.60600000000000        1.06200000000000       -2.08700000000000
H           -1.58740000000000       -0.95020000000000       -3.45600000000000
H           -1.34030000000000       -3.14230000000000       -1.74480000000000
H            0.57870000000000        3.41770000000000       -1.89740000000000
23
 energy: -37.763962291398 gnorm: 1.995791605696 xtb: 6.5.0 (746241f)
C            1.12772909717155        5.48518898172795       -1.46433815732865
C            1.88448534786965        6.00104234081954       -0.46586493392319
S            2.41187283054095        4.65746330630302        0.46894674095200
C            1.63741589630406        3.83453232444131       -0.29601660630280
C            1.59909454677410        2.66051126079829        0.34968858496477
C            1.87132411734607        1.86257263434841        1.28069737040077
C            1.25432118389666        0.51782973223239        1.14369749552527
C            0.55318430426201        0.36542825525467        0.11215261469785
C           -0.24108291554623       -0.31065247658422       -0.72942252784489
C           -0.63885524805012        0.08091588043954       -1.72255698182807
C           -1.17076289756962       -1.01330572711283       -2.45827942885033
C           -1.07161753024949       -2.10526922315464       -1.66247896192057
S           -0.40239440008668       -1.54884070479316       -0.17910722912288
S            1.02679110218920        1.54990365484657        0.08990829724483
C            1.08161091278913        4.07897719681407       -1.25987350039596
H            0.65417356789139        6.01223831825896       -2.28230611992940
H            2.22364867196175        6.98259830192973       -0.18998105229806
H            2.46868759238411        2.10604553172008        2.07924979660120
H            1.39780725242318       -0.21885139702419        1.84447115102915
H           -0.60674065647593        1.06595981294963       -2.09091579103286
H           -1.58689680734347       -0.95056999621583       -3.45528221814932
H           -1.34074132990146       -3.14205124105414       -1.74670898779775
H            0.57544536141918        3.41643323305484       -1.90177955469112
23
 energy: -38.383388557897 gnorm: 1.142643357650 xtb: 6.5.0 (746241f)
C            1.12677625127744        5.50229076871204       -1.47477686856048
C            1.88882284963115        6.01511066228398       -0.47052472655006
S            2.45141321337421        4.71353961643503        0.51077336337618
C            1.66053744280876        3.83317072742427       -0.26881374591223
C            1.63819846975532        2.72610058910149        0.37123523435674
C            1.89854513720128        1.85777392582981        1.33016316304806
C            1.27272096150776        0.49233183724749        1.19060270869040
C            0.52523494930197        0.29082192770345        0.11873437750199
C           -0.23550968090062       -0.32796935587459       -0.69801129646221
C           -0.67724227840732        0.09746409391971       -1.79799962008972
C           -1.18151418846728       -1.02183903271489       -2.47227930048797
C           -1.08101384825527       -2.11599314521540       -1.66844481085266
S           -0.41236884309594       -1.62575940855423       -0.15581629629271
S            0.99490580188763        1.57219688792655        0.01253086778146
C            1.04713518492560        4.11064027041645       -1.33165373155861
H            0.65375202063770        6.01806130763264       -2.28199686339532
H            2.22058920620241        6.98791101463922       -0.19419687367796
H            2.49292640233495        2.09561899331616        2.10767625759021
H            1.40610067610694       -0.22940506012560        1.88079064193741
H           -0.61199256250524        1.08109485404764       -2.11016235420041
H           -1.58782618343800       -0.95548065813758       -3.45821258928821
H           -1.34296832299396       -3.14385349501528       -1.75364042360640
H            0.56127734111049        3.41427267900165       -1.92207711334750
23
 energy: -38.806425833759 gnorm: 0.714668160129 xtb: 6.5.0 (746241f)
C            1.12995081098585        5.52251625032227       -1.48314169870158
C            1.89369521791214        6.04994207097404       -0.48111013517800
S            2.49903543324444        4.82371158007926        0.53964097740733
C            1.67884688050573        3.85871849972361       -0.27297518172564
C            1.68521956558367        2.76723185776779        0.41287120639114
C            1.92439275982572        1.84256329232278        1.38038934826504
C            1.29427889001261        0.47651851613381        1.24263255018704
C            0.51317377076921        0.22529715347329        0.15283007188528
C           -0.25706425074641       -0.35130966655680       -0.69821406720288
C           -0.71083679307597        0.09298395293154       -1.85089081187561
C           -1.19357338501898       -1.03461507678430       -2.48403608846599
C           -1.09953907197630       -2.14165597984724       -1.68681472454326
S           -0.45130955880770       -1.74343839014670       -0.15820621525139
S            0.95141918325427        1.60331059195846       -0.10003049042670
C            1.02892567879167        4.14809482691042       -1.37709664661643
H            0.65276223951974        6.02746999371002       -2.28423083714472
H            2.21830356155958        7.00762208089709       -0.20352596022715
H            2.53050397255138        2.08396284284331        2.15995413273659
H            1.42299738134140       -0.25386475699282        1.93832441975952
H           -0.61078845976196        1.09723931216854       -2.11685171551556
H           -1.59077064494191       -0.96211939568547       -3.46462164924894
H           -1.35214807851409       -3.15570394847806       -1.76962110919077
H            0.55102489698591        3.40362439227514       -1.93137537531733
23
 energy: -39.084064364608 gnorm: 0.445009216601 xtb: 6.5.0 (746241f)
C            1.13258634682359        5.54446258291684       -1.49238661047254
C            1.89821973216349        6.08179775301132       -0.49222803160971
S            2.54965828072353        4.93200526238319        0.57076878213742
C            1.70053934494598        3.87441970092125       -0.27760429148334
C            1.73092613144823        2.78701842741875        0.45926313726835
C            1.94675605862750        1.82105772637556        1.42983706476971
C            1.31726159312972        0.46981869211152        1.29706800108952
C            0.51305459882665        0.17729338239089        0.20085588369257
C           -0.27704105327557       -0.36859085511368       -0.69491245282728
C           -0.73288131887885        0.08947856160226       -1.89026734050216
C           -1.20904876647577       -1.04997473119140       -2.49716834542151
C           -1.11940635784570       -2.16410820180649       -1.70451266218973
S           -0.48733997105275       -1.86231885515160       -0.16015722636839
S            0.89149826724657        1.64659046395543       -0.24593592746918
C            1.01435246510060        4.17471661268291       -1.41000315620195
H            0.65048436105732        6.04819876925069       -2.28994696088286
H            2.21469874964511        7.03964030998536       -0.21699889421693
H            2.56556101704710        2.07369719456446        2.22174429128768
H            1.44728140069399       -0.28298805907205        1.99831582813431
H           -0.61015643461850        1.10862060793072       -2.12720037032725
H           -1.59996326537251       -0.97651940129808       -3.47878994968384
H           -1.36861329227047       -3.17528691091656       -1.79393723067083
H            0.54007211231074        3.39907096704870       -1.94190353805206
23
 energy: -39.224387401761 gnorm: 0.292339556190 xtb: 6.5.0 (746241f)
C            1.13944203561979        5.57695391148380       -1.50179509128219
C            1.90528679358224        6.12669015627450       -0.50734963538052
S            2.59799416572482        5.02983574776117        0.60016155954060
C            1.73094670969526        3.89345102178023       -0.27311956269297
C            1.76617437193336        2.78198367133533        0.49897808480268
C            1.96610486987198        1.79755511454329        1.47272990648044
C            1.33791524090250        0.46555193432791        1.34563480018439
C            0.52296674654474        0.15267869467623        0.24754897058193
C           -0.29498143012365       -0.39442220115643       -0.68046417946898
C           -0.74739663423765        0.07170889229458       -1.90283905064978
C           -1.22954038727629       -1.07429516740073       -2.51164202201111
C           -1.14705842101407       -2.19533899220641       -1.72778237725180
S           -0.51895791962849       -1.97062112092088       -0.15808186509855
S            0.84005699367290        1.68258775056037       -0.37206328460674
C            1.01841667680400        4.20037391709123       -1.41909142582930
H            0.64852429346089        6.08408186953753       -2.29763842077111
H            2.20397982156497        7.10066035288969       -0.24687025595172
H            2.59461808915552        2.05649979499961        2.28023525017340
H            1.47172636187789       -0.30310201195230        2.05703753183616
H           -0.61880995990896        1.10146652692641       -2.14164829186313
H           -1.61467662668546       -1.00200784269481       -3.50055165961151
H           -1.39990175193197       -3.20925809386151       -1.84538395527162
H            0.53566996039568        3.41506607371119       -1.95210502585858
23
 energy: -39.297524667787 gnorm: 0.223059831232 xtb: 6.5.0 (746241f)
C            1.15709176280715        5.61844471075505       -1.50436118087247
C            1.92068243384340        6.18492055121592       -0.51976047045082
S            2.63950111242925        5.11614162856578        0.63245723249324
C            1.76679709026337        3.91933410675024       -0.25290403251617
C            1.78653444185095        2.76670042973342        0.52018295414840
C            1.97925877104901        1.77989140577479        1.49807413285999
C            1.35246972292915        0.46478588631036        1.37567470686624
C            0.53587298815743        0.14794747177537        0.27675175737785
C           -0.30752116963650       -0.43499661637080       -0.65790475226079
C           -0.75827363190637        0.03104984696645       -1.89163858878851
C           -1.25423608705686       -1.11178951194238       -2.51954069508492
C           -1.18137880937173       -2.24147263889074       -1.75051930633426
S           -0.54143543293418       -2.06930403808701       -0.15437786221566
S            0.80237696915548        1.70958780348735       -0.46975654943550
C            1.04249206682189        4.23234698058972       -1.40194668967087
H            0.65502593345980        6.13123587990872       -2.29902765908661
H            2.18775462039560        7.18656575315258       -0.29513328097622
H            2.61145932966349        2.03330184401425        2.32644683347013
H            1.49221621737396       -0.30589509585831        2.10845253656777
H           -0.64181513994080        1.06218209653953       -2.15979624701004
H           -1.63312169405563       -1.04182949251338       -3.51849401348177
H           -1.44695587781845       -3.25406605387541       -1.92192900694394
H            0.54370438252060        3.46301705199852       -1.95704981865509
23
 energy: -39.345533595631 gnorm: 0.188628031512 xtb: 6.5.0 (746241f)
C            1.18571698443161        5.66854897283043       -1.49673305024360
C            1.94545731882416        6.25143264952417       -0.52241154399037
S            2.67062237648351        5.19520629528315        0.66756341848934
C            1.80136116892359        3.95198125075619       -0.22131809336101
C            1.79184335179183        2.74784502092597        0.52134038588955
C            1.98424694748869        1.76950258021902        1.50500533650787
C            1.35945319271778        0.46719462817990        1.38553104955656
C            0.54812493272433        0.15785430490145        0.28461871435693
C           -0.31248256728731       -0.48651601783083       -0.63397306768731
C           -0.76645663814603       -0.03052948913601       -1.86789305180749
C           -1.28071555226266       -1.16369964231758       -2.51849935004131
C           -1.21638862603027       -2.30158540989026       -1.76567535577769
S           -0.55322988937217       -2.16090792052788       -0.15340256939992
S            0.77114353941291        1.73218993902116       -0.55490166108329
C            1.07901881135211        4.27516963846061       -1.36649559164940
H            0.67559595130764        6.18510211962494       -2.29063319880947
H            2.17685985186460        7.27882632621912       -0.34600046517438
H            2.61351871467457        2.00790857048661        2.35617209343584
H            1.50627249944961       -0.29310903659036        2.14576496569771
H           -0.67585178680990        0.99514087339311       -2.18278118706719
H           -1.65554843210464       -1.09503154585016       -3.52445381482780
H           -1.50096858375614       -3.30408146156838       -1.99879239601947
H            0.56090643432217        3.53965735388566       -1.95813156699414
23
 energy: -39.381553120096 gnorm: 0.161541435443 xtb: 6.5.0 (746241f)
C            1.22142118607199        5.72388905520512       -1.47953631132310
C            1.97650517278624        6.32182225283845       -0.51469865645808
S            2.68997631814505        5.26642354640677        0.70068620216744
C            1.83081158108151        3.98797921641374       -0.18260713020956
C            1.78318603223436        2.72694424345036        0.50388749453415
C            1.98140878256246        1.76691330885747        1.49578678195227
C            1.35824949252764        0.47266644425991        1.37786831812402
C            0.55836173407163        0.18128430828115        0.27301824006725
C           -0.30980614981160       -0.54315302454608       -0.61216468778134
C           -0.77076523543091       -0.10661278795772       -1.83869420555678
C           -1.30620497354375       -1.22635205330176       -2.51025026857096
C           -1.24871591037706       -2.37160898275354       -1.77311158490978
S           -0.55743038276739       -2.24202684892881       -0.15820376668484
S            0.74407429798302        1.75213905087704       -0.63110082517316
C            1.12105301415545        4.32618102976846       -1.31849132560818
H            0.70855050903918        6.24059057514615       -2.27494349777032
H            2.17761656145185        7.36652879170638       -0.38861879525764
H            2.60335596847368        1.98481006113109        2.36754690631897
H            1.51263938668416       -0.26941988954582        2.16544399610663
H           -0.71221068715225        0.90904246349833       -2.20672226401563
H           -1.68147029453992       -1.15609687896410       -3.51862225419476
H           -1.55560055197523       -3.35690386329131       -2.06078220195104
H            0.58349414832985        3.63305998144874       -1.95179016380563
23
 energy: -39.409499999023 gnorm: 0.134182337589 xtb: 6.5.0 (746241f)
C            1.25953612660926        5.77734002825817       -1.45488362193555
C            2.00949567677864        6.38815246556353       -0.49836914780283
S            2.69527419387588        5.32241782182170        0.72596902671307
C            1.85083156400990        4.02016754809146       -0.14170159850724
C            1.76165557466792        2.70495478297240        0.47039022678129
C            1.97116673896094        1.77211180369824        1.47339204621717
C            1.34864934085810        0.48083445887501        1.35602005672587
C            0.56552728755804        0.21683723779504        0.24483062962960
C           -0.29815557837569       -0.59566851064956       -0.59470832230953
C           -0.76960309859451       -0.18624553807306       -1.80988433907735
C           -1.32748202694562       -1.29176080469723       -2.49577771113869
C           -1.27501491250743       -2.44300164508775       -1.77297166918026
S           -0.55482499737784       -2.30316670118086       -0.16983093397050
S            0.72212584482133        1.76861664239543       -0.69365834699574
C            1.16110514260875        4.37845625494736       -1.26535086431194
H            0.75010427702730        6.29200313277809       -2.25457405244544
H            2.19133266727342        7.44132519245494       -0.41661342807738
H            2.58404767830464        1.96891098132005        2.35928841927827
H            1.51011482439658       -0.24061269438165        2.16430851327263
H           -0.74137565499109        0.81541526841174       -2.22531575710064
H           -1.70908227339425       -1.21805586754778       -3.50217655153521
H           -1.60517523895222       -3.40890897476917       -2.09989343774358
H            0.60824684338791        3.72797711700394       -1.93458913648611
23
 energy: -39.430716616355 gnorm: 0.104696346809 xtb: 6.5.0 (746241f)
C            1.29682805304646        5.82556616653850       -1.42534031384529
C            2.04174282536578        6.44390176722950       -0.47404030056528
S            2.68666367924597        5.35855783114907        0.74213202107443
C            1.85971967510252        4.04252553614551       -0.10219571592231
C            1.72930885720530        2.68271416370355        0.42433133874425
C            1.95404273402451        1.78394359786584        1.44182089600048
C            1.33163985340633        0.49162558451173        1.32427393137765
C            0.56941448982257        0.26218582322003        0.20366061751365
C           -0.27673107744154       -0.63718577241061       -0.58210471114110
C           -0.76467448443999       -0.26155281535618       -1.78755895236526
C           -1.34365292991663       -1.35514519871703       -2.47702399714653
C           -1.29260270156653       -2.50933575338865       -1.76439422111180
S           -0.54438321543214       -2.34021611096822       -0.18704477114953
S            0.70427793177482        1.78227116134264       -0.74374135666411
C            1.19409520230363        4.42869441515902       -1.21540809629544
H            0.79750376134844        6.33796006448985       -2.23191511290724
H            2.21892758369812        7.49744184662133       -0.42311204932901
H            2.55796399074880        1.96488073308216        2.33244317130962
H            1.49823208309916       -0.21262525909013        2.14110094178176
H           -0.75994592754733        0.72380750977204       -2.23677446783698
H           -1.73834349738329       -1.27781299014346       -3.47742511821507
H           -1.64411104597541       -3.45875481382970       -2.10930083882145
H            0.63258415951035        3.81465251307329       -1.90848289448558
23
 energy: -39.444208828968 gnorm: 0.073643930570 xtb: 6.5.0 (746241f)
C            1.33199485315622        5.86973850471852       -1.39481297694774
C            2.07242208317722        6.48116246768484       -0.43924689078754
S            2.66609554882697        5.37036868349819        0.75564038867218
C            1.85427025671429        4.05286085016811       -0.07111751644895
C            1.69124356961813        2.66744904287206        0.37484345352344
C            1.93005756725336        1.79988474537084        1.40690991263633
C            1.31133532781272        0.50465370901782        1.28717596349418
C            0.56987787389045        0.30610405557386        0.15511408787972
C           -0.24705950794329       -0.66206924579072       -0.57952851500488
C           -0.76231819138317       -0.32422997182971       -1.78383902575147
C           -1.35683501970554       -1.41527777422440       -2.45747131217967
C           -1.29714946054579       -2.56498888272110       -1.74318102839537
S           -0.52003239731778       -2.35364119125664       -0.20387094570085
S            0.68816063018445        1.79458500322671       -0.78559891078449
C            1.21325941126138        4.47745469838381       -1.18346046444088
H            0.85234947607850        6.38513610055644       -2.20955318430275
H            2.26484354216302        7.52883823772016       -0.39460168372157
H            2.52697031703274        1.97880593057010        2.29281465977376
H            1.47879081276447       -0.19418320345743        2.09713117168645
H           -0.77182574117554        0.64712947318875       -2.24898268495847
H           -1.77440857038146       -1.33979793127181       -3.44731232148774
H           -1.66425263247926       -3.50893552712607       -2.07619452359761
H            0.65071025099781        3.88705222512774       -1.88695765315629
23
 energy: -39.452472171171 gnorm: 0.045849265838 xtb: 6.5.0 (746241f)
C            1.36561739529313        5.91216730483559       -1.36898312251896
C            2.10135097102430        6.50043885542033       -0.39597105054731
S            2.63869171789380        5.36365864018609        0.77648490118576
C            1.83569380720331        4.05569332750996       -0.05203381044227
C            1.65419025657235        2.66501856858385        0.33272118863947
C            1.90133755607094        1.81608169063987        1.37485303897241
C            1.29370740965854        0.51839132035509        1.24952381271510
C            0.56855077177653        0.33658365846340        0.10653931979979
C           -0.21387417814390       -0.67254193625216       -0.58979620143896
C           -0.76723242999370       -0.37170377093744       -1.80074704325050
C           -1.37168135275111       -1.47133946924017       -2.44056098351079
C           -1.28983990693776       -2.60933803508821       -1.71072187061919
S           -0.47896563508508       -2.35453885400432       -0.21455339700184
S            0.67067116495289        1.80757940154433       -0.82705919004006
C            1.21920692993033        4.52506061494994       -1.17501691339165
H            0.91483335491713        6.43959009257654       -2.19147840562333
H            2.32602404546450        7.53941000245421       -0.33123643516872
H            2.49397510055816        2.00909859450160        2.25275977116028
H            1.45771506005953       -0.19002914734802        2.04281906177154
H           -0.78503367138945        0.59274847975967       -2.26981880969017
H           -1.82188853213674       -1.40692200866644       -3.41621353331824
H           -1.66466082954876       -3.56194684363326       -2.00458108845358
H            0.66011099461087        3.94493951338969       -1.88302923922903
23
 energy: -39.458386947765 gnorm: 0.038040470514 xtb: 6.5.0 (746241f)
C            1.40020129952648        5.95421692392709       -1.35041815965016
C            2.12896196047643        6.51018499564859       -0.34965441388148
S            2.60552004108073        5.34782868566664        0.80856656770940
C            1.80756545971956        4.05732867783755       -0.04101881159839
C            1.61847274773811        2.67300893320083        0.29970709079648
C            1.86960585555333        1.83104238168440        1.34698131210974
C            1.28095982877201        0.53158583916291        1.21225573801506
C            0.56806822754115        0.35398158458193        0.05940345800275
C           -0.17942093727682       -0.67624987305617       -0.61076312661853
C           -0.77989624703109       -0.41036001036974       -1.82882332467816
C           -1.39174101511346       -1.52357255487517       -2.42609690429366
C           -1.27689325881686       -2.64680582042543       -1.67314345188771
S           -0.42250411865100       -2.35271007081293       -0.22044720803155
S            0.65168175880196        1.82132792496119       -0.87006778666188
C            1.21998831567515        4.57277803850248       -1.18220382080619
H            0.98426351873038        6.50015107635410       -2.17963197288026
H            2.39500764056416        7.53970555959455       -0.24632735362372
H            2.45980975326813        2.05065513628481        2.21766249623149
H            1.43841066242900       -0.19828987752331        1.98461843484420
H           -0.80456500511421        0.55399826797628       -2.29575290294333
H           -1.88006718080106       -1.47703901502069       -3.38496562189582
H           -1.65213209887629       -3.61844376360417       -1.91132901805994
H            0.66720279180400        3.99377696030438       -1.89465122019863
23
 energy: -39.462155046144 gnorm: 0.050954428850 xtb: 6.5.0 (746241f)
C            1.43657400025451        5.99797339401063       -1.33748530487581
C            2.15539827731548        6.51903146410965       -0.30606222069691
S            2.57287876922736        5.33168228417231        0.84640150250336
C            1.77754160741303        4.06514864373997       -0.03760323476293
C            1.58634066682911        2.68685609279699        0.27547826385452
C            1.83931543871787        1.84314018086015        1.32335384298543
C            1.27338163401624        0.54273052071649        1.17733777762286
C            0.56831246389875        0.36121161762508        0.01704205300006
C           -0.15269250145709       -0.68053451720111       -0.63872901751492
C           -0.79973202032481       -0.44601254589599       -1.85843214866264
C           -1.41654485596997       -1.57457926658017       -2.41345387873672
C           -1.26453227804717       -2.68173265005022       -1.63696272958155
S           -0.36355816175173       -2.35349461384997       -0.22258461394396
S            0.63351961894574        1.83404842363000       -0.90984613624354
C            1.22255764430817        4.62117887982675       -1.19633836223914
H            1.05662354717511        6.56622350790640       -2.16979915709620
H            2.46001166611537        7.53612746891977       -0.15562514609819
H            2.42713816160308        2.09349465699683        2.18940109461371
H            1.42300906113804       -0.21219903614505        1.92971669603001
H           -0.83276970158426        0.52122933106425       -2.32406859057796
H           -1.94054774468187       -1.55115361416391       -3.35479493502279
H           -1.63030786458104       -3.67369903981428       -1.81625531114818
H            0.67658257143986        4.04142881732559       -1.91679044340887
23
 energy: -39.464577678881 gnorm: 0.058739381400 xtb: 6.5.0 (746241f)
C            1.47136084086706        6.04076214618863       -1.32354767606235
C            2.18061048038120        6.53047298658179       -0.26762897516093
S            2.54867667987880        5.31853311380474        0.87993516954379
C            1.75358016898551        4.07892717839847       -0.04049748816855
C            1.55919389891664        2.70061452156032        0.25456259549582
C            1.81400394335967        1.85230064359578        1.30109577138703
C            1.26796652790423        0.55217463755729        1.14535372217727
C            0.56704594744278        0.36548715838709       -0.01969083281148
C           -0.13874399196161       -0.68727877174316       -0.66657870574668
C           -0.82106982499847       -0.48132116507283       -1.88199915031458
C           -1.43877033119398       -1.62473073467431       -2.40074575200213
C           -1.25544224317127       -2.71590977183639       -1.60509632109322
S           -0.31665424433937       -2.35595847021994       -0.22091610884996
S            0.61733067913741        1.84513803990826       -0.94463735550265
C            1.22928113690422        4.66740245279922       -1.20815311369723
H            1.12309443709127        6.63135265009797       -2.15413847299824
H            2.51277432474432        7.53445326730566       -0.07634623215462
H            2.39806085856969        2.12889604335870        2.16427609424122
H            1.40947044525294       -0.22246499236521        1.88234079604937
H           -0.86299071684901        0.48645603962563       -2.35167629349619
H           -1.99035417793305       -1.62616581311264       -3.32603572101174
H           -1.60767187264280       -3.72249420721561       -1.73709261970667
H            0.68774703365354        4.09145304707073       -1.93888333011768
23
 energy: -39.467096385486 gnorm: 0.057034177970 xtb: 6.5.0 (746241f)