 Entering Gaussian System, Link 0=g16
 Initial command:
 /sw/linux/gaussian/g16/g16/l1.exe "/usr/scratch/link/Gau-22351.inp" -scrdir="/usr/scratch/link/"
 Entering Link 1 = /sw/linux/gaussian/g16/g16/l1.exe PID=     22353.
  
 Copyright (c) 1988-2017, Gaussian, Inc.  All Rights Reserved.
  
 This is part of the Gaussian(R) 16 program.  It is based on
 the Gaussian(R) 09 system (copyright 2009, Gaussian, Inc.),
 the Gaussian(R) 03 system (copyright 2003, Gaussian, Inc.),
 the Gaussian(R) 98 system (copyright 1998, Gaussian, Inc.),
 the Gaussian(R) 94 system (copyright 1995, Gaussian, Inc.),
 the Gaussian 92(TM) system (copyright 1992, Gaussian, Inc.),
 the Gaussian 90(TM) system (copyright 1990, Gaussian, Inc.),
 the Gaussian 88(TM) system (copyright 1988, Gaussian, Inc.),
 the Gaussian 86(TM) system (copyright 1986, Carnegie Mellon
 University), and the Gaussian 82(TM) system (copyright 1983,
 Carnegie Mellon University). Gaussian is a federally registered
 trademark of Gaussian, Inc.
  
 This software contains proprietary and confidential information,
 including trade secrets, belonging to Gaussian, Inc.
  
 This software is provided under written license and may be
 used, copied, transmitted, or stored only in accord with that
 written license.
  
 The following legend is applicable only to US Government
 contracts under FAR:
  
                    RESTRICTED RIGHTS LEGEND
  
 Use, reproduction and disclosure by the US Government is
 subject to restrictions as set forth in subparagraphs (a)
 and (c) of the Commercial Computer Software - Restricted
 Rights clause in FAR 52.227-19.
  
 Gaussian, Inc.
 340 Quinnipiac St., Bldg. 40, Wallingford CT 06492
  
  
 ---------------------------------------------------------------
 Warning -- This program may not be used in any manner that
 competes with the business of Gaussian, Inc. or will provide
 assistance to any competitor of Gaussian, Inc.  The licensee
 of this program is prohibited from giving any competitor of
 Gaussian, Inc. access to this program.  By using this program,
 the user acknowledges that Gaussian, Inc. is engaged in the
 business of creating and licensing software in the field of
 computational chemistry and represents and warrants to the
 licensee that it is not a competitor of Gaussian, Inc. and that
 it will not use this program in any manner prohibited above.
 ---------------------------------------------------------------
  

 Cite this work as:
 Gaussian 16, Revision B.01,
 M. J. Frisch, G. W. Trucks, H. B. Schlegel, G. E. Scuseria, 
 M. A. Robb, J. R. Cheeseman, G. Scalmani, V. Barone, 
 G. A. Petersson, H. Nakatsuji, X. Li, M. Caricato, A. V. Marenich, 
 J. Bloino, B. G. Janesko, R. Gomperts, B. Mennucci, H. P. Hratchian, 
 J. V. Ortiz, A. F. Izmaylov, J. L. Sonnenberg, D. Williams-Young, 
 F. Ding, F. Lipparini, F. Egidi, J. Goings, B. Peng, A. Petrone, 
 T. Henderson, D. Ranasinghe, V. G. Zakrzewski, J. Gao, N. Rega, 
 G. Zheng, W. Liang, M. Hada, M. Ehara, K. Toyota, R. Fukuda, 
 J. Hasegawa, M. Ishida, T. Nakajima, Y. Honda, O. Kitao, H. Nakai, 
 T. Vreven, K. Throssell, J. A. Montgomery, Jr., J. E. Peralta, 
 F. Ogliaro, M. J. Bearpark, J. J. Heyd, E. N. Brothers, K. N. Kudin, 
 V. N. Staroverov, T. A. Keith, R. Kobayashi, J. Normand, 
 K. Raghavachari, A. P. Rendell, J. C. Burant, S. S. Iyengar, 
 J. Tomasi, M. Cossi, J. M. Millam, M. Klene, C. Adamo, R. Cammi, 
 J. W. Ochterski, R. L. Martin, K. Morokuma, O. Farkas, 
 J. B. Foresman, and D. J. Fox, Gaussian, Inc., Wallingford CT, 2016.
 
 ******************************************
 Gaussian 16:  ES64L-G16RevB.01 20-Dec-2017
                16-Aug-2022 
 ******************************************
 %nprocs=20
 Will use up to   20 processors via shared memory.
 %mem=16GB
 -------------------------------------------------------------
 #P opt freq b3lyp/6-31G(d,p) nosymm empiricaldispersion=GD3BJ
 -------------------------------------------------------------
 1/18=20,19=15,26=3,38=1/1,3;
 2/9=110,12=2,15=1,17=6,18=5,40=1/2;
 3/5=1,6=6,7=101,11=2,25=1,30=1,71=1,74=-5,124=41/1,2,3;
 4//1;
 5/5=2,38=5/2;
 6/7=2,8=2,9=2,10=2,28=1/1;
 7/30=1/1,2,3,16;
 1/18=20,19=15,26=3/3(2);
 2/9=110,15=1/2;
 99//99;
 2/9=110,15=1/2;
 3/5=1,6=6,7=101,11=2,25=1,30=1,71=1,74=-5,124=41/1,2,3;
 4/5=5,16=3,69=1/1;
 5/5=2,38=5/2;
 7/30=1/1,2,3,16;
 1/18=20,19=15,26=3/3(-5);
 2/9=110,15=1/2;
 6/7=2,8=2,9=2,10=2,19=2,28=1/1;
 99/9=1/99;
 Leave Link    1 at Tue Aug 16 11:26:14 2022, MaxMem=  2147483648 cpu:               2.0 elap:               0.1
 (Enter /sw/linux/gaussian/g16/g16/l101.exe)
 -----
 TITLE
 -----
 Symbolic Z-matrix:
 Charge =  0 Multiplicity = 1
 H                    -0.57116   0.78327   0. 
 H                     0.20493   0.83631  0. 
 
 ITRead=  0  0
 MicOpt= -1 -1
 NAtoms=      2 NQM=        2 NQMF=       0 NMMI=      0 NMMIF=      0
                NMic=       0 NMicF=      0.
                    Isotopes and Nuclear Properties:
 (Nuclear quadrupole moments (NQMom) in fm**2, nuclear magnetic moments (NMagM)
  in nuclear magnetons)

  Atom         1           2
 IAtWgt=           1           1
 AtmWgt=   1.0078250   1.0078250
 NucSpn=           1           1
 AtZEff=   0.0000000   0.0000000
 NQMom=    0.0000000   0.0000000
 NMagM=    2.7928460   2.7928460
 AtZNuc=   1.0000000   1.0000000
 Leave Link  101 at Tue Aug 16 11:26:15 2022, MaxMem=  2147483648 cpu:               6.9 elap:               0.4
 (Enter /sw/linux/gaussian/g16/g16/l103.exe)

 GradGradGradGradGradGradGradGradGradGradGradGradGradGradGradGradGradGrad
 Berny optimization.
 Initialization pass.
                           ----------------------------
                           !    Initial Parameters    !
                           ! (Angstroms and Degrees)  !
 --------------------------                            --------------------------
 ! Name  Definition              Value          Derivative Info.                !
 --------------------------------------------------------------------------------
 ! R1    R(1,2)                  0.7779         estimate D2E/DX2                !
 --------------------------------------------------------------------------------
 Trust Radius=3.00D-01 FncErr=1.00D-07 GrdErr=1.00D-06 EigMax=2.50D+02 EigMin=1.00D-04
 Number of steps in this run=     20 maximum allowed number of steps=    100.
 GradGradGradGradGradGradGradGradGradGradGradGradGradGradGradGradGradGrad

 Leave Link  103 at Tue Aug 16 11:26:15 2022, MaxMem=  2147483648 cpu:               2.0 elap:               0.1
 (Enter /sw/linux/gaussian/g16/g16/l202.exe)
                          Input orientation:                          
 ---------------------------------------------------------------------
 Center     Atomic      Atomic             Coordinates (Angstroms)
 Number     Number       Type             X           Y           Z
 ---------------------------------------------------------------------
      1          1           0       -0.571158    0.783270    0.000001
      2          1           0        0.204927    0.836312   -0.000002
 ---------------------------------------------------------------------
 Symmetry turned off by external request.
 Stoichiometry    H2
 Framework group  D*H[C*(H.H)]
 Deg. of freedom     1
 Full point group                 D*H     NOp   8
 Rotational constants (GHZ):           0.0000000        1657.3718491        1657.3718491
 Leave Link  202 at Tue Aug 16 11:26:15 2022, MaxMem=  2147483648 cpu:               1.1 elap:               0.1
 (Enter /sw/linux/gaussian/g16/g16/l301.exe)
 Standard basis: 6-31G(d,p) (6D, 7F)
 Ernie: Thresh=  0.10000D-02 Tol=  0.10000D-05 Strict=F.
    10 basis functions,    14 primitive gaussians,    10 cartesian basis functions
     1 alpha electrons        1 beta electrons
       nuclear repulsion energy         0.6802680686 Hartrees.
 IExCor=  402 DFT=T Ex+Corr=B3LYP ExCW=0 ScaHFX=  0.200000
 ScaDFX=  0.800000  0.720000  1.000000  0.810000 ScalE2=  1.000000  1.000000
 IRadAn=      5 IRanWt=     -1 IRanGd=            0 ICorTp=0 IEmpDi=141
 NAtoms=    2 NActive=    2 NUniq=    2 SFac= 1.00D+00 NAtFMM=   60 NAOKFM=F Big=F
 Integral buffers will be    131072 words long.
 Raffenetti 2 integral format.
 Two-electron integral symmetry is turned off.
 R6Disp:  Grimme-D3(BJ) Dispersion energy=       -0.0001453822 Hartrees.
 Nuclear repulsion after empirical dispersion term =        0.6801226864 Hartrees.
 Leave Link  301 at Tue Aug 16 11:26:15 2022, MaxMem=  2147483648 cpu:               2.4 elap:               0.2
 (Enter /sw/linux/gaussian/g16/g16/l302.exe)
 NPDir=0 NMtPBC=     1 NCelOv=     1 NCel=       1 NClECP=     1 NCelD=      1
         NCelK=      1 NCelE2=     1 NClLst=     1 CellRange=     0.0.
 One-electron integrals computed using PRISM.
 NBasis=    10 RedAO= T EigKep=  1.04D-01  NBF=    10
 NBsUse=    10 1.00D-06 EigRej= -1.00D+00 NBFU=    10
 Precomputing XC quadrature grid using
 IXCGrd= 4 IRadAn=           5 IRanWt=          -1 IRanGd=           0 AccXCQ= 0.00D+00.
 Generated NRdTot=       0 NPtTot=           0 NUsed=           0 NTot=          32
 NSgBfM=    10    10    10    10    10 MxSgAt=     2 MxSgA2=     2.
 Leave Link  302 at Tue Aug 16 11:26:15 2022, MaxMem=  2147483648 cpu:               2.9 elap:               0.2
 (Enter /sw/linux/gaussian/g16/g16/l303.exe)
 DipDrv:  MaxL=1.
 Leave Link  303 at Tue Aug 16 11:26:15 2022, MaxMem=  2147483648 cpu:               2.0 elap:               0.1
 (Enter /sw/linux/gaussian/g16/g16/l401.exe)
 ExpMin= 1.61D-01 ExpMax= 1.87D+01 ExpMxC= 1.87D+01 IAcc=3 IRadAn=         5 AccDes= 0.00D+00
 Harris functional with IExCor=  402 and IRadAn=       5 diagonalized for initial guess.
 HarFok:  IExCor=  402 AccDes= 0.00D+00 IRadAn=         5 IDoV= 1 UseB2=F ITyADJ=14
 ICtDFT=  3500011 ScaDFX=  1.000000  1.000000  1.000000  1.000000
 FoFCou: FMM=F IPFlag=           0 FMFlag=      100000 FMFlg1=           0
         NFxFlg=           0 DoJE=T BraDBF=F KetDBF=T FulRan=T
         wScrn=  0.000000 ICntrl=       500 IOpCl=  0 I1Cent=   200000004 NGrid=           0
         NMat0=    1 NMatS0=      1 NMatT0=    0 NMatD0=    1 NMtDS0=    0 NMtDT0=    0
 Symmetry not used in FoFCou.
 Harris En= -1.18446112176446    
 JPrj=0 DoOrth=F DoCkMO=F.
 Leave Link  401 at Tue Aug 16 11:26:16 2022, MaxMem=  2147483648 cpu:               3.1 elap:               0.2
 (Enter /sw/linux/gaussian/g16/g16/l502.exe)
 Keep R1 ints in memory in canonical form, NReq=17249660.
 FoFCou: FMM=F IPFlag=           0 FMFlag=           0 FMFlg1=           0
         NFxFlg=           0 DoJE=F BraDBF=F KetDBF=F FulRan=T
         wScrn=  0.000000 ICntrl=       600 IOpCl=  0 I1Cent=           0 NGrid=           0
         NMat0=    1 NMatS0=     55 NMatT0=    0 NMatD0=    1 NMtDS0=    0 NMtDT0=    0
 Symmetry not used in FoFCou.
 Two-electron integral symmetry not used.
 Closed shell SCF:
 Using DIIS extrapolation, IDIIS=  1040.
 NGot=  2147483648 LenX=  2147480496 LenY=  2147479614
 Requested convergence on RMS density matrix=1.00D-08 within 128 cycles.
 Requested convergence on MAX density matrix=1.00D-06.
 Requested convergence on             energy=1.00D-06.
 No special actions if energy rises.
 Integral accuracy reduced to 1.0D-05 until final iterations.

 Cycle   1  Pass 0  IDiag  1:
 E= -1.17294249847729    
 DIIS: error= 2.05D-02 at cycle   1 NSaved=   1.
 NSaved= 1 IEnMin= 1 EnMin= -1.17294249847729     IErMin= 1 ErrMin= 2.05D-02
 ErrMax= 2.05D-02  0.00D+00 EMaxC= 1.00D-01 BMatC= 3.00D-03 BMatP= 3.00D-03
 IDIUse=3 WtCom= 7.95D-01 WtEn= 2.05D-01
 Coeff-Com:  0.100D+01
 Coeff-En:   0.100D+01
 Coeff:      0.100D+01
 Gap=     0.505 Goal=   None    Shift=    0.000
 GapD=    0.505 DampG=2.000 DampE=0.500 DampFc=1.0000 IDamp=-1.
 RMSDP=6.49D-03 MaxDP=2.59D-02              OVMax= 5.37D-02

 Cycle   2  Pass 0  IDiag  1:
 E= -1.17773712289362     Delta-E=       -0.004794624416 Rises=F Damp=F
 DIIS: error= 4.37D-03 at cycle   2 NSaved=   2.
 NSaved= 2 IEnMin= 2 EnMin= -1.17773712289362     IErMin= 2 ErrMin= 4.37D-03
 ErrMax= 4.37D-03  0.00D+00 EMaxC= 1.00D-01 BMatC= 1.15D-04 BMatP= 3.00D-03
 IDIUse=3 WtCom= 9.56D-01 WtEn= 4.37D-02
 Coeff-Com:  0.161D+00 0.839D+00
 Coeff-En:   0.000D+00 0.100D+01
 Coeff:      0.154D+00 0.846D+00
 Gap=     0.515 Goal=   None    Shift=    0.000
 RMSDP=9.39D-04 MaxDP=3.57D-03 DE=-4.79D-03 OVMax= 8.25D-03

 Cycle   3  Pass 0  IDiag  1:
 E= -1.17790749150843     Delta-E=       -0.000170368615 Rises=F Damp=F
 DIIS: error= 4.67D-05 at cycle   3 NSaved=   3.
 NSaved= 3 IEnMin= 3 EnMin= -1.17790749150843     IErMin= 3 ErrMin= 4.67D-05
 ErrMax= 4.67D-05  0.00D+00 EMaxC= 1.00D-01 BMatC= 1.17D-08 BMatP= 1.15D-04
 IDIUse=1 WtCom= 1.00D+00 WtEn= 0.00D+00
 Coeff-Com: -0.820D-02-0.396D-01 0.105D+01
 Coeff:     -0.820D-02-0.396D-01 0.105D+01
 Gap=     0.515 Goal=   None    Shift=    0.000
 RMSDP=8.18D-06 MaxDP=3.21D-05 DE=-1.70D-04 OVMax= 6.04D-05

 Initial convergence to 1.0D-05 achieved.  Increase integral accuracy.
 Cycle   4  Pass 1  IDiag  1:
 E= -1.17790752085675     Delta-E=       -0.000000029348 Rises=F Damp=F
 DIIS: error= 4.55D-07 at cycle   1 NSaved=   1.
 NSaved= 1 IEnMin= 1 EnMin= -1.17790752085675     IErMin= 1 ErrMin= 4.55D-07
 ErrMax= 4.55D-07  0.00D+00 EMaxC= 1.00D-01 BMatC= 9.61D-13 BMatP= 9.61D-13
 IDIUse=1 WtCom= 1.00D+00 WtEn= 0.00D+00
 Coeff-Com:  0.100D+01
 Coeff:      0.100D+01
 Gap=     0.515 Goal=   None    Shift=    0.000
 RMSDP=8.18D-06 MaxDP=3.21D-05 DE=-2.93D-08 OVMax= 7.90D-07

 Cycle   5  Pass 1  IDiag  1:
 E= -1.17790752085793     Delta-E=       -0.000000000001 Rises=F Damp=F
 DIIS: error= 5.88D-08 at cycle   2 NSaved=   2.
 NSaved= 2 IEnMin= 2 EnMin= -1.17790752085793     IErMin= 2 ErrMin= 5.88D-08
 ErrMax= 5.88D-08  0.00D+00 EMaxC= 1.00D-01 BMatC= 2.56D-14 BMatP= 9.61D-13
 IDIUse=1 WtCom= 1.00D+00 WtEn= 0.00D+00
 Coeff-Com:  0.134D+00 0.866D+00
 Coeff:      0.134D+00 0.866D+00
 Gap=     0.515 Goal=   None    Shift=    0.000
 RMSDP=1.53D-08 MaxDP=5.92D-08 DE=-1.18D-12 OVMax= 1.31D-07

 Cycle   6  Pass 1  IDiag  1:
 E= -1.17790752085797     Delta-E=        0.000000000000 Rises=F Damp=F
 DIIS: error= 2.60D-09 at cycle   3 NSaved=   3.
 NSaved= 3 IEnMin= 3 EnMin= -1.17790752085797     IErMin= 3 ErrMin= 2.60D-09
 ErrMax= 2.60D-09  0.00D+00 EMaxC= 1.00D-01 BMatC= 2.86D-17 BMatP= 2.56D-14
 IDIUse=1 WtCom= 1.00D+00 WtEn= 0.00D+00
 Coeff-Com: -0.778D-02-0.149D-01 0.102D+01
 Coeff:     -0.778D-02-0.149D-01 0.102D+01
 Gap=     0.515 Goal=   None    Shift=    0.000
 RMSDP=3.16D-10 MaxDP=1.08D-09 DE=-4.00D-14 OVMax= 3.25D-09

 SCF Done:  E(RB3LYP) =  -1.17790752086     A.U. after    6 cycles
            NFock=  6  Conv=0.32D-09     -V/T= 2.0594
 KE= 1.111815931609D+00 PE=-3.569253969231D+00 EE= 5.994078303770D-01
 Leave Link  502 at Tue Aug 16 11:26:16 2022, MaxMem=  2147483648 cpu:               2.6 elap:               0.2
 (Enter /sw/linux/gaussian/g16/g16/l601.exe)
 Copying SCF densities to generalized density rwf, IOpCl= 0 IROHF=0.

 **********************************************************************

            Population analysis using the SCF Density.

 **********************************************************************

 Alpha  occ. eigenvalues --   -0.42445
 Alpha virt. eigenvalues --    0.09097   0.58978   1.00847   1.67922   1.67922
 Alpha virt. eigenvalues --    2.31208   2.57693   2.57693   3.99638
          Condensed to atoms (all electrons):
               1          2
     1  H    0.595220   0.404780
     2  H    0.404780   0.595220
 Mulliken charges:
               1
     1  H    0.000000
     2  H    0.000000
 Sum of Mulliken charges =   0.00000
 Mulliken charges with hydrogens summed into heavy atoms:
               1
 Electronic spatial extent (au):  <R**2>=             10.2110
 Charge=              0.0000 electrons
 Dipole moment (field-independent basis, Debye):
    X=              0.0000    Y=              0.0000    Z=              0.0000  Tot=              0.0000
 Quadrupole moment (field-independent basis, Debye-Ang):
   XX=             -1.5151   YY=             -2.0707   ZZ=             -2.0734
   XY=              0.0382   XZ=              0.0000   YZ=              0.0000
 Traceless Quadrupole moment (field-independent basis, Debye-Ang):
   XX=              0.3713   YY=             -0.1843   ZZ=             -0.1869
   XY=              0.0382   XZ=              0.0000   YZ=              0.0000
 Octapole moment (field-independent basis, Debye-Ang**2):
  XXX=              0.8323  YYY=             -5.0306  ZZZ=              0.0000  XYY=              0.4410
  XXY=             -1.2409  XXZ=              0.0000  XZZ=              0.3797  YZZ=             -1.6790
  YYZ=              0.0000  XYZ=              0.0000
 Hexadecapole moment (field-independent basis, Debye-Ang**3):
 XXXX=             -3.2480 YYYY=            -10.0962 ZZZZ=             -1.9436 XXXY=              0.6472
 XXXZ=              0.0000 YYYX=              0.9586 YYYZ=              0.0000 ZZZX=              0.0000
 ZZZY=              0.0000 XXYY=             -1.9177 XXZZ=             -0.9013 YYZZ=             -2.0083
 XXYZ=              0.0000 YYXZ=              0.0000 ZZXY=              0.2949
 N-N= 6.801226863862D-01 E-N=-3.569253967034D+00  KE= 1.111815931609D+00
 No NMR shielding tensors so no spin-rotation constants.
 Leave Link  601 at Tue Aug 16 11:26:16 2022, MaxMem=  2147483648 cpu:               2.6 elap:               0.2
 (Enter /sw/linux/gaussian/g16/g16/l701.exe)
 ... and contract with generalized density number  0.
 Compute integral first derivatives.
 R6Disp: Adding Grimme-D3(BJ) dispersion energy 1st derivatives to the gradient.
 Leave Link  701 at Tue Aug 16 11:26:16 2022, MaxMem=  2147483648 cpu:               2.8 elap:               0.2
 (Enter /sw/linux/gaussian/g16/g16/l702.exe)
 L702 exits ... SP integral derivatives will be done elsewhere.
 Leave Link  702 at Tue Aug 16 11:26:16 2022, MaxMem=  2147483648 cpu:               1.5 elap:               0.1
 (Enter /sw/linux/gaussian/g16/g16/l703.exe)
 Integral derivatives from FoFJK, PRISM(SPDF).
 Compute integral first derivatives, UseDBF=F ICtDFT=           0.
 Calling FoFJK, ICntrl=      2127 FMM=F ISym2X=0 I1Cent= 0 IOpClX= 0 NMat=1 NMatS=1 NMatT=0.
 FoFJK:  IHMeth= 1 ICntrl=    2127 DoSepK=F KAlg= 0 I1Cent=           0 FoldK=F
 IRaf=         0 NMat=       1 IRICut=       1 DoRegI=T DoRafI=F ISym2E= 0 IDoP0=0 IntGTp=1.
 FoFCou: FMM=F IPFlag=           0 FMFlag=      100000 FMFlg1=         800
         NFxFlg=           0 DoJE=F BraDBF=F KetDBF=F FulRan=T
         wScrn=  0.000000 ICntrl=      2127 IOpCl=  0 I1Cent=           0 NGrid=           0
         NMat0=    1 NMatS0=      1 NMatT0=    0 NMatD0=    1 NMtDS0=    0 NMtDT0=    0
 Symmetry not used in FoFCou.
 Leave Link  703 at Tue Aug 16 11:26:16 2022, MaxMem=  2147483648 cpu:               3.0 elap:               0.2
 (Enter /sw/linux/gaussian/g16/g16/l716.exe)
 Dipole        =-1.94289029D-15-1.55431223D-15-8.86419979D-18
 -------------------------------------------------------------------
 Center     Atomic                   Forces (Hartrees/Bohr)
 Number     Number              X              Y              Z
 -------------------------------------------------------------------
      1        1           0.022414089    0.001531894   -0.000000081
      2        1          -0.022414089   -0.001531894    0.000000081
 -------------------------------------------------------------------
 Cartesian Forces:  Max     0.022414089 RMS     0.012970968
 Leave Link  716 at Tue Aug 16 11:26:17 2022, MaxMem=  2147483648 cpu:               1.4 elap:               0.1
 (Enter /sw/linux/gaussian/g16/g16/l103.exe)

 GradGradGradGradGradGradGradGradGradGradGradGradGradGradGradGradGradGrad
 Berny optimization.
 FormGI is forming the generalized inverse of G from B-inverse, IUseBI=4.
 Internal  Forces:  Max     0.022466376 RMS     0.022466376
 Search for a local minimum.
 Step number   1 out of a maximum of   20
 All quantities printed in internal units (Hartrees-Bohrs-Radians)
 RMS Force = .22466D-01 SwitMx=.10000D-02 MixMth= 1
 Mixed Optimization -- RFO/linear search
 Second derivative matrix not updated -- first step.
 The second derivative matrix:
                          R1
           R1           0.34436
 ITU=  0
     Eigenvalues ---    0.34436
 RFO step:  Lambda=-1.45955075D-03 EMin= 3.44357863D-01
 Linear search not attempted -- first point.
 Iteration  1 RMS(Cart)=  0.04593790 RMS(Int)=  0.00000000
 Iteration  2 RMS(Cart)=  0.00000000 RMS(Int)=  0.00000000
 ITry= 1 IFail=0 DXMaxC= 3.24D-02 DCOld= 1.00D+10 DXMaxT= 3.00D-01 DXLimC= 3.00D+00 Rises=F
 Variable       Old X    -DE/DX   Delta X   Delta X   Delta X     New X
                                 (Linear)    (Quad)   (Total)
    R1        1.47001  -0.02247   0.00000  -0.06497  -0.06497   1.40504
         Item               Value     Threshold  Converged?
 Maximum Force            0.022466     0.000450     NO 
 RMS     Force            0.022466     0.000300     NO 
 Maximum Displacement     0.032407     0.001800     NO 
 RMS     Displacement     0.045938     0.001200     NO 
 Predicted change in Energy=-7.328555D-04
 Lowest energy point so far.  Saving SCF results.
 GradGradGradGradGradGradGradGradGradGradGradGradGradGradGradGradGradGrad

 Leave Link  103 at Tue Aug 16 11:26:17 2022, MaxMem=  2147483648 cpu:               1.9 elap:               0.1
 (Enter /sw/linux/gaussian/g16/g16/l202.exe)
                          Input orientation:                          
 ---------------------------------------------------------------------
 Center     Atomic      Atomic             Coordinates (Angstroms)
 Number     Number       Type             X           Y           Z
 ---------------------------------------------------------------------
      1          1           0       -0.554009    0.784442    0.000001
      2          1           0        0.187777    0.835140   -0.000002
 ---------------------------------------------------------------------
 Symmetry turned off by external request.
 Stoichiometry    H2
 Framework group  D*H[C*(H.H)]
 Deg. of freedom     1
 Full point group                 D*H     NOp   8
 Rotational constants (GHZ):           0.0000000        1814.1814646        1814.1814646
 Leave Link  202 at Tue Aug 16 11:26:17 2022, MaxMem=  2147483648 cpu:               1.2 elap:               0.1
 (Enter /sw/linux/gaussian/g16/g16/l301.exe)
 Standard basis: 6-31G(d,p) (6D, 7F)
 Ernie: Thresh=  0.10000D-02 Tol=  0.10000D-05 Strict=F.
    10 basis functions,    14 primitive gaussians,    10 cartesian basis functions
     1 alpha electrons        1 beta electrons
       nuclear repulsion energy         0.7117221297 Hartrees.
 IExCor=  402 DFT=T Ex+Corr=B3LYP ExCW=0 ScaHFX=  0.200000
 ScaDFX=  0.800000  0.720000  1.000000  0.810000 ScalE2=  1.000000  1.000000
 IRadAn=      5 IRanWt=     -1 IRanGd=            0 ICorTp=0 IEmpDi=141
 NAtoms=    2 NActive=    2 NUniq=    2 SFac= 1.00D+00 NAtFMM=   60 NAOKFM=F Big=F
 Integral buffers will be    131072 words long.
 Raffenetti 2 integral format.
 Two-electron integral symmetry is turned off.
 R6Disp:  Grimme-D3(BJ) Dispersion energy=       -0.0001407719 Hartrees.
 Nuclear repulsion after empirical dispersion term =        0.7115813578 Hartrees.
 Leave Link  301 at Tue Aug 16 11:26:17 2022, MaxMem=  2147483648 cpu:               2.6 elap:               0.2
 (Enter /sw/linux/gaussian/g16/g16/l302.exe)
 NPDir=0 NMtPBC=     1 NCelOv=     1 NCel=       1 NClECP=     1 NCelD=      1
         NCelK=      1 NCelE2=     1 NClLst=     1 CellRange=     0.0.
 One-electron integrals computed using PRISM.
 NBasis=    10 RedAO= T EigKep=  9.69D-02  NBF=    10
 NBsUse=    10 1.00D-06 EigRej= -1.00D+00 NBFU=    10
 Precomputing XC quadrature grid using
 IXCGrd= 4 IRadAn=           5 IRanWt=          -1 IRanGd=           0 AccXCQ= 0.00D+00.
 Generated NRdTot=       0 NPtTot=           0 NUsed=           0 NTot=          32
 NSgBfM=    10    10    10    10    10 MxSgAt=     2 MxSgA2=     2.
 Leave Link  302 at Tue Aug 16 11:26:17 2022, MaxMem=  2147483648 cpu:               3.2 elap:               0.2
 (Enter /sw/linux/gaussian/g16/g16/l303.exe)
 DipDrv:  MaxL=1.
 Leave Link  303 at Tue Aug 16 11:26:17 2022, MaxMem=  2147483648 cpu:               1.5 elap:               0.1
 (Enter /sw/linux/gaussian/g16/g16/l401.exe)
 Initial guess from the checkpoint file:  "/usr/scratch/link/Gau-22353.chk"
 B after Tr=     0.000000    0.000000    0.000000
         Rot=    1.000000    0.000000    0.000000    0.000000 Ang=   0.00 deg.
 Guess basis will be translated and rotated to current coordinates.
 JPrj=2 DoOrth=T DoCkMO=T.
 Generating alternative initial guess.
 ExpMin= 1.61D-01 ExpMax= 1.87D+01 ExpMxC= 1.87D+01 IAcc=3 IRadAn=         5 AccDes= 0.00D+00
 Harris functional with IExCor=  402 and IRadAn=       5 diagonalized for initial guess.
 HarFok:  IExCor=  402 AccDes= 0.00D+00 IRadAn=         5 IDoV= 1 UseB2=F ITyADJ=14
 ICtDFT=  3500011 ScaDFX=  1.000000  1.000000  1.000000  1.000000
 FoFCou: FMM=F IPFlag=           0 FMFlag=      100000 FMFlg1=           0
         NFxFlg=           0 DoJE=T BraDBF=F KetDBF=T FulRan=T
         wScrn=  0.000000 ICntrl=       500 IOpCl=  0 I1Cent=   200000004 NGrid=           0
         NMat0=    1 NMatS0=      1 NMatT0=    0 NMatD0=    1 NMtDS0=    0 NMtDT0=    0
 Symmetry not used in FoFCou.
 Harris En= -1.18727350540970    
 Leave Link  401 at Tue Aug 16 11:26:18 2022, MaxMem=  2147483648 cpu:               4.5 elap:               0.3
 (Enter /sw/linux/gaussian/g16/g16/l502.exe)
 Keep R1 ints in memory in canonical form, NReq=17249660.
 FoFCou: FMM=F IPFlag=           0 FMFlag=           0 FMFlg1=           0
         NFxFlg=           0 DoJE=F BraDBF=F KetDBF=F FulRan=T
         wScrn=  0.000000 ICntrl=       600 IOpCl=  0 I1Cent=           0 NGrid=           0
         NMat0=    1 NMatS0=     55 NMatT0=    0 NMatD0=    1 NMtDS0=    0 NMtDT0=    0
 Symmetry not used in FoFCou.
 Two-electron integral symmetry not used.
 Closed shell SCF:
 Using DIIS extrapolation, IDIIS=  1040.
 NGot=  2147483648 LenX=  2147480496 LenY=  2147479614
 Requested convergence on RMS density matrix=1.00D-08 within 128 cycles.
 Requested convergence on MAX density matrix=1.00D-06.
 Requested convergence on             energy=1.00D-06.
 No special actions if energy rises.
 Integral accuracy reduced to 1.0D-05 until final iterations.

 Cycle   1  Pass 0  IDiag  1:
 E= -1.17853125886126    
 DIIS: error= 3.93D-03 at cycle   1 NSaved=   1.
 NSaved= 1 IEnMin= 1 EnMin= -1.17853125886126     IErMin= 1 ErrMin= 3.93D-03
 ErrMax= 3.93D-03  0.00D+00 EMaxC= 1.00D-01 BMatC= 8.82D-05 BMatP= 8.82D-05
 IDIUse=3 WtCom= 9.61D-01 WtEn= 3.93D-02
 Coeff-Com:  0.100D+01
 Coeff-En:   0.100D+01
 Coeff:      0.100D+01
 Gap=     2.803 Goal=   None    Shift=    0.000
 GapD=    2.803 DampG=2.000 DampE=1.000 DampFc=2.0000 IDamp=-1.
 RMSDP=1.13D-03 MaxDP=4.45D-03              OVMax= 9.30D-03

 Cycle   2  Pass 0  IDiag  1:
 E= -1.17867462775613     Delta-E=       -0.000143368895 Rises=F Damp=F
 DIIS: error= 8.04D-04 at cycle   2 NSaved=   2.
 NSaved= 2 IEnMin= 2 EnMin= -1.17867462775613     IErMin= 2 ErrMin= 8.04D-04
 ErrMax= 8.04D-04  0.00D+00 EMaxC= 1.00D-01 BMatC= 3.56D-06 BMatP= 8.82D-05
 IDIUse=3 WtCom= 9.92D-01 WtEn= 8.04D-03
 Coeff-Com:  0.157D+00 0.843D+00
 Coeff-En:   0.000D+00 0.100D+01
 Coeff:      0.156D+00 0.844D+00
 Gap=     0.532 Goal=   None    Shift=    0.000
 RMSDP=1.59D-04 MaxDP=6.12D-04 DE=-1.43D-04 OVMax= 1.43D-03

 Cycle   3  Pass 0  IDiag  1:
 E= -1.17867976190745     Delta-E=       -0.000005134151 Rises=F Damp=F
 DIIS: error= 1.42D-05 at cycle   3 NSaved=   3.
 NSaved= 3 IEnMin= 3 EnMin= -1.17867976190745     IErMin= 3 ErrMin= 1.42D-05
 ErrMax= 1.42D-05  0.00D+00 EMaxC= 1.00D-01 BMatC= 1.08D-09 BMatP= 3.56D-06
 IDIUse=1 WtCom= 1.00D+00 WtEn= 0.00D+00
 Coeff-Com: -0.807D-02-0.353D-01 0.104D+01
 Coeff:     -0.807D-02-0.353D-01 0.104D+01
 Gap=     0.532 Goal=   None    Shift=    0.000
 RMSDP=2.43D-06 MaxDP=9.63D-06 DE=-5.13D-06 OVMax= 1.80D-05

 Initial convergence to 1.0D-05 achieved.  Increase integral accuracy.
 Cycle   4  Pass 1  IDiag  1:
 E= -1.17867977465721     Delta-E=       -0.000000012750 Rises=F Damp=F
 DIIS: error= 6.18D-09 at cycle   1 NSaved=   1.
 NSaved= 1 IEnMin= 1 EnMin= -1.17867977465721     IErMin= 1 ErrMin= 6.18D-09
 ErrMax= 6.18D-09  0.00D+00 EMaxC= 1.00D-01 BMatC= 2.16D-16 BMatP= 2.16D-16
 IDIUse=1 WtCom= 1.00D+00 WtEn= 0.00D+00
 Coeff-Com:  0.100D+01
 Coeff:      0.100D+01
 Gap=     0.532 Goal=   None    Shift=    0.000
 RMSDP=2.43D-06 MaxDP=9.63D-06 DE=-1.27D-08 OVMax= 7.54D-09

 Cycle   5  Pass 1  IDiag  1:
 E= -1.17867977465721     Delta-E=        0.000000000000 Rises=F Damp=F
 DIIS: error= 5.28D-10 at cycle   2 NSaved=   2.
 NSaved= 2 IEnMin= 1 EnMin= -1.17867977465721     IErMin= 2 ErrMin= 5.28D-10
 ErrMax= 5.28D-10  0.00D+00 EMaxC= 1.00D-01 BMatC= 2.13D-18 BMatP= 2.16D-16
 IDIUse=1 WtCom= 1.00D+00 WtEn= 0.00D+00
 Coeff-Com: -0.252D-02 0.100D+01
 Coeff:     -0.252D-02 0.100D+01
 Gap=     0.532 Goal=   None    Shift=    0.000
 RMSDP=1.30D-10 MaxDP=4.89D-10 DE= 2.22D-16 OVMax= 1.16D-09

 SCF Done:  E(RB3LYP) =  -1.17867977466     A.U. after    5 cycles
            NFock=  5  Conv=0.13D-09     -V/T= 2.0321
 KE= 1.142051723144D+00 PE=-3.643835439981D+00 EE= 6.115225843446D-01
 Leave Link  502 at Tue Aug 16 11:26:18 2022, MaxMem=  2147483648 cpu:               3.2 elap:               0.2
 (Enter /sw/linux/gaussian/g16/g16/l701.exe)
 ... and contract with generalized density number  0.
 Compute integral first derivatives.
 R6Disp: Adding Grimme-D3(BJ) dispersion energy 1st derivatives to the gradient.
 Leave Link  701 at Tue Aug 16 11:26:18 2022, MaxMem=  2147483648 cpu:               3.2 elap:               0.2
 (Enter /sw/linux/gaussian/g16/g16/l702.exe)
 L702 exits ... SP integral derivatives will be done elsewhere.
 Leave Link  702 at Tue Aug 16 11:26:18 2022, MaxMem=  2147483648 cpu:               1.0 elap:               0.1
 (Enter /sw/linux/gaussian/g16/g16/l703.exe)
 Integral derivatives from FoFJK, PRISM(SPDF).
 Compute integral first derivatives, UseDBF=F ICtDFT=           0.
 Calling FoFJK, ICntrl=      2127 FMM=F ISym2X=0 I1Cent= 0 IOpClX= 0 NMat=1 NMatS=1 NMatT=0.
 FoFJK:  IHMeth= 1 ICntrl=    2127 DoSepK=F KAlg= 0 I1Cent=           0 FoldK=F
 IRaf=         0 NMat=       1 IRICut=       1 DoRegI=T DoRafI=F ISym2E= 0 IDoP0=0 IntGTp=1.
 FoFCou: FMM=F IPFlag=           0 FMFlag=      100000 FMFlg1=         800
         NFxFlg=           0 DoJE=F BraDBF=F KetDBF=F FulRan=T
         wScrn=  0.000000 ICntrl=      2127 IOpCl=  0 I1Cent=           0 NGrid=           0
         NMat0=    1 NMatS0=      1 NMatT0=    0 NMatD0=    1 NMtDS0=    0 NMtDT0=    0
 Symmetry not used in FoFCou.
 Leave Link  703 at Tue Aug 16 11:26:18 2022, MaxMem=  2147483648 cpu:               2.2 elap:               0.1
 (Enter /sw/linux/gaussian/g16/g16/l716.exe)
 Dipole        = 4.99600361D-15-9.54791801D-15 3.76512921D-16
 -------------------------------------------------------------------
 Center     Atomic                   Forces (Hartrees/Bohr)
 Number     Number              X              Y              Z
 -------------------------------------------------------------------
      1        1           0.000478680    0.000032716   -0.000000002
      2        1          -0.000478680   -0.000032716    0.000000002
 -------------------------------------------------------------------
 Cartesian Forces:  Max     0.000478680 RMS     0.000277011
 Leave Link  716 at Tue Aug 16 11:26:18 2022, MaxMem=  2147483648 cpu:               1.3 elap:               0.1
 (Enter /sw/linux/gaussian/g16/g16/l103.exe)

 GradGradGradGradGradGradGradGradGradGradGradGradGradGradGradGradGradGrad
 Berny optimization.
 Using GEDIIS/GDIIS optimizer.
 Red2BG is reusing G-inverse.
 Internal  Forces:  Max     0.000479797 RMS     0.000479797
 Search for a local minimum.
 Step number   2 out of a maximum of   20
 All quantities printed in internal units (Hartrees-Bohrs-Radians)
 RMS Force = .47980D-03 SwitMx=.10000D-02 MixMth= 2
 Mixed Optimization -- En-DIIS/RFO-DIIS
 Update second derivatives using D2CorX and points    1    2
 DE= -7.72D-04 DEPred=-7.33D-04 R= 1.05D+00
 TightC=F SS=  1.41D+00  RLast= 6.50D-02 DXNew= 5.0454D-01 1.9490D-01
 Trust test= 1.05D+00 RLast= 6.50D-02 DXMaxT set to 3.00D-01
 The second derivative matrix:
                          R1
           R1           0.33843
 ITU=  1  0
 Use linear search instead of GDIIS.
     Eigenvalues ---    0.33843
 RFO step:  Lambda= 0.00000000D+00 EMin= 3.38432063D-01
 Quartic linear search produced a step of  0.01953.
 Iteration  1 RMS(Cart)=  0.00089712 RMS(Int)=  0.00000000
 Iteration  2 RMS(Cart)=  0.00000000 RMS(Int)=  0.00000000
 ITry= 1 IFail=0 DXMaxC= 6.33D-04 DCOld= 1.00D+10 DXMaxT= 3.00D-01 DXLimC= 3.00D+00 Rises=F
 Variable       Old X    -DE/DX   Delta X   Delta X   Delta X     New X
                                 (Linear)    (Quad)   (Total)
    R1        1.40504  -0.00048  -0.00127   0.00000  -0.00127   1.40377
         Item               Value     Threshold  Converged?
 Maximum Force            0.000480     0.000450     NO 
 RMS     Force            0.000480     0.000300     NO 
 Maximum Displacement     0.000633     0.001800     YES
 RMS     Displacement     0.000897     0.001200     YES
 Predicted change in Energy=-3.363491D-07
 Lowest energy point so far.  Saving SCF results.
 GradGradGradGradGradGradGradGradGradGradGradGradGradGradGradGradGradGrad

 Leave Link  103 at Tue Aug 16 11:26:18 2022, MaxMem=  2147483648 cpu:               1.6 elap:               0.1
 (Enter /sw/linux/gaussian/g16/g16/l202.exe)
                          Input orientation:                          
 ---------------------------------------------------------------------
 Center     Atomic      Atomic             Coordinates (Angstroms)
 Number     Number       Type             X           Y           Z
 ---------------------------------------------------------------------
      1          1           0       -0.553674    0.784465    0.000001
      2          1           0        0.187442    0.835117   -0.000002
 ---------------------------------------------------------------------
 Symmetry turned off by external request.
 Stoichiometry    H2
 Framework group  D*H[C*(H.H)]
 Deg. of freedom     1
 Full point group                 D*H     NOp   8
 Rotational constants (GHZ):           0.0000000        1817.4622353        1817.4622353
 Leave Link  202 at Tue Aug 16 11:26:19 2022, MaxMem=  2147483648 cpu:               1.7 elap:               0.1
 (Enter /sw/linux/gaussian/g16/g16/l301.exe)
 Standard basis: 6-31G(d,p) (6D, 7F)
 Ernie: Thresh=  0.10000D-02 Tol=  0.10000D-05 Strict=F.
    10 basis functions,    14 primitive gaussians,    10 cartesian basis functions
     1 alpha electrons        1 beta electrons
       nuclear repulsion energy         0.7123653791 Hartrees.
 IExCor=  402 DFT=T Ex+Corr=B3LYP ExCW=0 ScaHFX=  0.200000
 ScaDFX=  0.800000  0.720000  1.000000  0.810000 ScalE2=  1.000000  1.000000
 IRadAn=      5 IRanWt=     -1 IRanGd=            0 ICorTp=0 IEmpDi=141
 NAtoms=    2 NActive=    2 NUniq=    2 SFac= 1.00D+00 NAtFMM=   60 NAOKFM=F Big=F
 Integral buffers will be    131072 words long.
 Raffenetti 2 integral format.
 Two-electron integral symmetry is turned off.
 R6Disp:  Grimme-D3(BJ) Dispersion energy=       -0.0001407233 Hartrees.
 Nuclear repulsion after empirical dispersion term =        0.7122246559 Hartrees.
 Leave Link  301 at Tue Aug 16 11:26:19 2022, MaxMem=  2147483648 cpu:               1.8 elap:               0.1
 (Enter /sw/linux/gaussian/g16/g16/l302.exe)
 NPDir=0 NMtPBC=     1 NCelOv=     1 NCel=       1 NClECP=     1 NCelD=      1
         NCelK=      1 NCelE2=     1 NClLst=     1 CellRange=     0.0.
 One-electron integrals computed using PRISM.
 NBasis=    10 RedAO= T EigKep=  9.68D-02  NBF=    10
 NBsUse=    10 1.00D-06 EigRej= -1.00D+00 NBFU=    10
 Precomputing XC quadrature grid using
 IXCGrd= 4 IRadAn=           5 IRanWt=          -1 IRanGd=           0 AccXCQ= 0.00D+00.
 Generated NRdTot=       0 NPtTot=           0 NUsed=           0 NTot=          32
 NSgBfM=    10    10    10    10    10 MxSgAt=     2 MxSgA2=     2.
 Leave Link  302 at Tue Aug 16 11:26:19 2022, MaxMem=  2147483648 cpu:               2.9 elap:               0.2
 (Enter /sw/linux/gaussian/g16/g16/l303.exe)
 DipDrv:  MaxL=1.
 Leave Link  303 at Tue Aug 16 11:26:19 2022, MaxMem=  2147483648 cpu:               3.3 elap:               0.2
 (Enter /sw/linux/gaussian/g16/g16/l401.exe)
 Initial guess from the checkpoint file:  "/usr/scratch/link/Gau-22353.chk"
 B after Tr=     0.000000    0.000000    0.000000
         Rot=    1.000000    0.000000    0.000000    0.000000 Ang=   0.00 deg.
 Guess basis will be translated and rotated to current coordinates.
 JPrj=2 DoOrth=T DoCkMO=T.
 Leave Link  401 at Tue Aug 16 11:26:19 2022, MaxMem=  2147483648 cpu:               3.0 elap:               0.2
 (Enter /sw/linux/gaussian/g16/g16/l502.exe)
 Keep R1 ints in memory in canonical form, NReq=17249660.
 FoFCou: FMM=F IPFlag=           0 FMFlag=           0 FMFlg1=           0
         NFxFlg=           0 DoJE=F BraDBF=F KetDBF=F FulRan=T
         wScrn=  0.000000 ICntrl=       600 IOpCl=  0 I1Cent=           0 NGrid=           0
         NMat0=    1 NMatS0=     55 NMatT0=    0 NMatD0=    1 NMtDS0=    0 NMtDT0=    0
 Symmetry not used in FoFCou.
 Two-electron integral symmetry not used.
 Closed shell SCF:
 Using DIIS extrapolation, IDIIS=  1040.
 NGot=  2147483648 LenX=  2147480496 LenY=  2147479614
 Requested convergence on RMS density matrix=1.00D-08 within 128 cycles.
 Requested convergence on MAX density matrix=1.00D-06.
 Requested convergence on             energy=1.00D-06.
 No special actions if energy rises.

 Cycle   1  Pass 1  IDiag  1:
 E= -1.17868001969084    
 DIIS: error= 7.80D-05 at cycle   1 NSaved=   1.
 NSaved= 1 IEnMin= 1 EnMin= -1.17868001969084     IErMin= 1 ErrMin= 7.80D-05
 ErrMax= 7.80D-05  0.00D+00 EMaxC= 1.00D-01 BMatC= 3.51D-08 BMatP= 3.51D-08
 IDIUse=1 WtCom= 1.00D+00 WtEn= 0.00D+00
 Coeff-Com:  0.100D+01
 Coeff:      0.100D+01
 Gap=     2.810 Goal=   None    Shift=    0.000
 RMSDP=2.25D-05 MaxDP=8.92D-05              OVMax= 1.86D-04

 Cycle   2  Pass 1  IDiag  1:
 E= -1.17868007674741     Delta-E=       -0.000000057057 Rises=F Damp=F
 DIIS: error= 1.60D-05 at cycle   2 NSaved=   2.
 NSaved= 2 IEnMin= 2 EnMin= -1.17868007674741     IErMin= 2 ErrMin= 1.60D-05
 ErrMax= 1.60D-05  0.00D+00 EMaxC= 1.00D-01 BMatC= 1.42D-09 BMatP= 3.51D-08
 IDIUse=1 WtCom= 1.00D+00 WtEn= 0.00D+00
 Coeff-Com:  0.158D+00 0.842D+00
 Coeff:      0.158D+00 0.842D+00
 Gap=     0.533 Goal=   None    Shift=    0.000
 RMSDP=3.18D-06 MaxDP=1.22D-05 DE=-5.71D-08 OVMax= 2.85D-05

 Cycle   3  Pass 1  IDiag  1:
 E= -1.17868007880274     Delta-E=       -0.000000002055 Rises=F Damp=F
 DIIS: error= 2.56D-07 at cycle   3 NSaved=   3.
 NSaved= 3 IEnMin= 3 EnMin= -1.17868007880274     IErMin= 3 ErrMin= 2.56D-07
 ErrMax= 2.56D-07  0.00D+00 EMaxC= 1.00D-01 BMatC= 4.10D-13 BMatP= 1.42D-09
 IDIUse=1 WtCom= 1.00D+00 WtEn= 0.00D+00
 Coeff-Com: -0.807D-02-0.377D-01 0.105D+01
 Coeff:     -0.807D-02-0.377D-01 0.105D+01
 Gap=     0.533 Goal=   None    Shift=    0.000
 RMSDP=4.16D-08 MaxDP=1.61D-07 DE=-2.06D-09 OVMax= 3.13D-07

 Cycle   4  Pass 1  IDiag  1:
 E= -1.17868007880311     Delta-E=        0.000000000000 Rises=F Damp=F
 DIIS: error= 2.74D-12 at cycle   4 NSaved=   4.
 NSaved= 4 IEnMin= 4 EnMin= -1.17868007880311     IErMin= 4 ErrMin= 2.74D-12
 ErrMax= 2.74D-12  0.00D+00 EMaxC= 1.00D-01 BMatC= 4.58D-23 BMatP= 4.10D-13
 IDIUse=1 WtCom= 1.00D+00 WtEn= 0.00D+00
 Coeff-Com:  0.950D-08-0.136D-06-0.435D-06 0.100D+01
 Coeff:      0.950D-08-0.136D-06-0.435D-06 0.100D+01
 Gap=     0.533 Goal=   None    Shift=    0.000
 RMSDP=5.95D-13 MaxDP=2.30D-12 DE=-3.72D-13 OVMax= 5.25D-12

 SCF Done:  E(RB3LYP) =  -1.17868007880     A.U. after    4 cycles
            NFock=  4  Conv=0.59D-12     -V/T= 2.0315
 KE= 1.142665419056D+00 PE=-3.645334332221D+00 EE= 6.117641784989D-01
 Leave Link  502 at Tue Aug 16 11:26:20 2022, MaxMem=  2147483648 cpu:               3.1 elap:               0.2
 (Enter /sw/linux/gaussian/g16/g16/l701.exe)
 ... and contract with generalized density number  0.
 Compute integral first derivatives.
 R6Disp: Adding Grimme-D3(BJ) dispersion energy 1st derivatives to the gradient.
 Leave Link  701 at Tue Aug 16 11:26:20 2022, MaxMem=  2147483648 cpu:               2.6 elap:               0.2
 (Enter /sw/linux/gaussian/g16/g16/l702.exe)
 L702 exits ... SP integral derivatives will be done elsewhere.
 Leave Link  702 at Tue Aug 16 11:26:20 2022, MaxMem=  2147483648 cpu:               1.7 elap:               0.1
 (Enter /sw/linux/gaussian/g16/g16/l703.exe)
 Integral derivatives from FoFJK, PRISM(SPDF).
 Compute integral first derivatives, UseDBF=F ICtDFT=           0.
 Calling FoFJK, ICntrl=      2127 FMM=F ISym2X=0 I1Cent= 0 IOpClX= 0 NMat=1 NMatS=1 NMatT=0.
 FoFJK:  IHMeth= 1 ICntrl=    2127 DoSepK=F KAlg= 0 I1Cent=           0 FoldK=F
 IRaf=         0 NMat=       1 IRICut=       1 DoRegI=T DoRafI=F ISym2E= 0 IDoP0=0 IntGTp=1.
 FoFCou: FMM=F IPFlag=           0 FMFlag=      100000 FMFlg1=         800
         NFxFlg=           0 DoJE=F BraDBF=F KetDBF=F FulRan=T
         wScrn=  0.000000 ICntrl=      2127 IOpCl=  0 I1Cent=           0 NGrid=           0
         NMat0=    1 NMatS0=      1 NMatT0=    0 NMatD0=    1 NMtDS0=    0 NMtDT0=    0
 Symmetry not used in FoFCou.
 Leave Link  703 at Tue Aug 16 11:26:20 2022, MaxMem=  2147483648 cpu:               3.4 elap:               0.2
 (Enter /sw/linux/gaussian/g16/g16/l716.exe)
 Dipole        =-3.33066907D-16-5.55111512D-15-1.30990257D-16
 -------------------------------------------------------------------
 Center     Atomic                   Forces (Hartrees/Bohr)
 Number     Number              X              Y              Z
 -------------------------------------------------------------------
      1        1          -0.000000690   -0.000000047    0.000000000
      2        1           0.000000690    0.000000047    0.000000000
 -------------------------------------------------------------------
 Cartesian Forces:  Max     0.000000690 RMS     0.000000400
 Leave Link  716 at Tue Aug 16 11:26:20 2022, MaxMem=  2147483648 cpu:               1.7 elap:               0.1
 (Enter /sw/linux/gaussian/g16/g16/l103.exe)

 GradGradGradGradGradGradGradGradGradGradGradGradGradGradGradGradGradGrad
 Berny optimization.
 Using GEDIIS/GDIIS optimizer.
 Red2BG is reusing G-inverse.
 Internal  Forces:  Max     0.000000692 RMS     0.000000692
 Search for a local minimum.
 Step number   3 out of a maximum of   20
 All quantities printed in internal units (Hartrees-Bohrs-Radians)
 RMS Force = .69197D-06 SwitMx=.10000D-02 MixMth= 2
 Mixed Optimization -- En-DIIS/RFO-DIIS
 Swapping is turned off.
 Update second derivatives using D2CorX and points    2    3
 DE= -3.04D-07 DEPred=-3.36D-07 R= 9.04D-01
 Trust test= 9.04D-01 RLast= 1.27D-03 DXMaxT set to 3.00D-01
 The second derivative matrix:
                          R1
           R1           0.37872
 ITU=  0  1
     Eigenvalues ---    0.37872
 En-DIIS/RFO-DIIS/Sim-DIIS IScMMF=       -3 using points:     3    2
 RFO step:  Lambda=-1.26432198D-12.
 NNeg= 0 NGDIIS= 2 SimSw=  2.50D-03 Rises=F DC= -3.04D-07 SmlDif=  1.00D-05
 NRisDI= 0 DoIntr=F SqrtH=F CThrHd= 10.0 CDAdj=  3.0
 RMS Error=  0.1827128358D-05 NUsed= 2 OKEnD=F EnDIS=F
 InvSVX:  RCond= 1.81D-06 Info=           0 Equed=N FErr=  8.90D-16 BErr=  8.95D-17
 DidBck=F Rises=F RFO-DIIS coefs:    0.99856    0.00144
 Iteration  1 RMS(Cart)=  0.00000129 RMS(Int)=  0.00000000
 Iteration  2 RMS(Cart)=  0.00000000 RMS(Int)=  0.00000000
 ITry= 1 IFail=0 DXMaxC= 9.11D-07 DCOld= 1.00D+10 DXMaxT= 3.00D-01 DXLimC= 3.00D+00 Rises=F
 Variable       Old X    -DE/DX   Delta X   Delta X   Delta X     New X
                                 (Linear)    (Quad)   (Total)
    R1        1.40377   0.00000   0.00000   0.00000   0.00000   1.40378
         Item               Value     Threshold  Converged?
 Maximum Force            0.000001     0.000450     YES
 RMS     Force            0.000001     0.000300     YES
 Maximum Displacement     0.000001     0.001800     YES
 RMS     Displacement     0.000001     0.001200     YES
 Predicted change in Energy=-6.321573D-13
 Optimization completed.
    -- Stationary point found.
                           ----------------------------
                           !   Optimized Parameters   !
                           ! (Angstroms and Degrees)  !
 --------------------------                            --------------------------
 ! Name  Definition              Value          Derivative Info.                !
 --------------------------------------------------------------------------------
 ! R1    R(1,2)                  0.7428         -DE/DX =    0.0                 !
 --------------------------------------------------------------------------------
 Lowest energy point so far.  Saving SCF results.
 Largest change from initial coordinates is atom    2       0.018 Angstoms.
 GradGradGradGradGradGradGradGradGradGradGradGradGradGradGradGradGradGrad

 Leave Link  103 at Tue Aug 16 11:26:20 2022, MaxMem=  2147483648 cpu:               0.7 elap:               0.1
 (Enter /sw/linux/gaussian/g16/g16/l202.exe)
                          Input orientation:                          
 ---------------------------------------------------------------------
 Center     Atomic      Atomic             Coordinates (Angstroms)
 Number     Number       Type             X           Y           Z
 ---------------------------------------------------------------------
      1          1           0       -0.553674    0.784465    0.000001
      2          1           0        0.187442    0.835117   -0.000002
 ---------------------------------------------------------------------
 Symmetry turned off by external request.
 Stoichiometry    H2
 Framework group  D*H[C*(H.H)]
 Deg. of freedom     1
 Full point group                 D*H     NOp   8
 Rotational constants (GHZ):           0.0000000        1817.4622353        1817.4622353
 Leave Link  202 at Tue Aug 16 11:26:20 2022, MaxMem=  2147483648 cpu:               0.8 elap:               0.1
 (Enter /sw/linux/gaussian/g16/g16/l601.exe)
 Copying SCF densities to generalized density rwf, IOpCl= 0 IROHF=0.

 **********************************************************************

            Population analysis using the SCF Density.

 **********************************************************************

 Alpha  occ. eigenvalues --   -0.43157
 Alpha virt. eigenvalues --    0.10095   0.57702   1.03605   1.67471   1.67471
 Alpha virt. eigenvalues --    2.37878   2.61561   2.61561   4.15261
          Condensed to atoms (all electrons):
               1          2
     1  H    0.589026   0.410974
     2  H    0.410974   0.589026
 Mulliken charges:
               1
     1  H    0.000000
     2  H    0.000000
 Sum of Mulliken charges =   0.00000
 Mulliken charges with hydrogens summed into heavy atoms:
               1
 Electronic spatial extent (au):  <R**2>=             10.0465
 Charge=              0.0000 electrons
 Dipole moment (field-independent basis, Debye):
    X=              0.0000    Y=              0.0000    Z=              0.0000  Tot=              0.0000
 Quadrupole moment (field-independent basis, Debye-Ang):
   XX=             -1.5100   YY=             -2.0267   ZZ=             -2.0292
   XY=              0.0355   XZ=              0.0000   YZ=              0.0000
 Traceless Quadrupole moment (field-independent basis, Debye-Ang):
   XX=              0.3453   YY=             -0.1714   ZZ=             -0.1738
   XY=              0.0355   XZ=              0.0000   YZ=              0.0000
 Octapole moment (field-independent basis, Debye-Ang**2):
  XXX=              0.8295  YYY=             -4.9237  ZZZ=              0.0000  XYY=              0.4286
  XXY=             -1.2358  XXZ=              0.0000  XZZ=              0.3716  YZZ=             -1.6432
  YYZ=              0.0000  XYZ=              0.0000
 Hexadecapole moment (field-independent basis, Debye-Ang**3):
 XXXX=             -3.0683 YYYY=             -9.8549 ZZZZ=             -1.8760 XXXY=              0.6480
 XXXZ=              0.0000 YYYX=              0.9381 YYYZ=              0.0000 ZZZX=              0.0000
 ZZZY=              0.0000 XXYY=             -1.8677 XXZZ=             -0.8561 YYZZ=             -1.9567
 XXYZ=              0.0000 YYXZ=              0.0000 ZZXY=              0.2898
 N-N= 7.122246558628D-01 E-N=-3.645334332218D+00  KE= 1.142665419056D+00
 No NMR shielding tensors so no spin-rotation constants.
 Leave Link  601 at Tue Aug 16 11:26:21 2022, MaxMem=  2147483648 cpu:               3.6 elap:               0.2
 (Enter /sw/linux/gaussian/g16/g16/l9999.exe)
 1\1\GINC-THINC349\FOpt\RB3LYP\6-31G(d,p)\H2\LINK\16-Aug-2022\0\\#P opt
  freq b3lyp/6-31G(d,p) nosymm empiricaldispersion=GD3BJ\\TITLE\\0,1\H,
 -0.5536739244,0.7844651033,0.0000005636\H,0.1874424045,0.8351168143,-0
 .0000021118\\Version=ES64L-G16RevB.01\HF=-1.1786801\RMSD=5.949e-13\RMS
 F=3.995e-07\Dipole=0.,0.,0.\Quadrupole=0.2566955,-0.1274464,-0.1292491
 ,0.0263774,-0.0000014,0.\PG=D*H [C*(H1.H1)]\\@


 IT'S WHAT A FELLER THINKS HE KNOWS THAT HURTS HIM...
                    ------
           KIN HUBBARD
 Leave Link 9999 at Tue Aug 16 11:26:21 2022, MaxMem=  2147483648 cpu:               1.8 elap:               0.1
 Job cpu time:       0 days  0 hours  1 minutes 35.9 seconds.
 Elapsed time:       0 days  0 hours  0 minutes  6.5 seconds.
 File lengths (MBytes):  RWF=      6 Int=      0 D2E=      0 Chk=      1 Scr=      1
 Normal termination of Gaussian 16 at Tue Aug 16 11:26:21 2022.
 (Enter /sw/linux/gaussian/g16/g16/l1.exe)
 Link1:  Proceeding to internal job step number  2.
 ----------------------------------------------------------------------
 #P Geom=AllCheck Guess=TCheck SCRF=Check GenChk RB3LYP/6-31G(d,p) Freq
 ----------------------------------------------------------------------
 1/10=4,29=7,30=1,38=1,40=1/1,3;
 2/12=2,15=1,40=1/2;
 3/5=1,6=6,7=101,11=2,14=-4,25=1,30=1,70=2,71=2,74=-5,116=1,124=41,140=1/1,2,3;
 4/5=101/1;
 5/5=2,38=6,98=1/2;
 8/6=4,10=90,11=11/1;
 11/6=1,8=1,9=11,15=111,16=1,31=1/1,2,10;
 10/6=1,31=1/2;
 6/7=2,8=2,9=2,10=2,28=1/1;
 7/8=1,10=1,25=1,30=1/1,2,3,16;
 1/10=4,30=1/3;
 99//99;
 Leave Link    1 at Tue Aug 16 11:26:21 2022, MaxMem=  2147483648 cpu:               0.5 elap:               0.0
 (Enter /sw/linux/gaussian/g16/g16/l101.exe)
 Structure from the checkpoint file:  "/usr/scratch/link/Gau-22353.chk"
 -----
 TITLE
 -----
 Charge =  0 Multiplicity = 1
 Redundant internal coordinates found in file.  (old form).
 H,0,-0.5536739244,0.7844651033,0.0000005636
 H,0,0.1874424045,0.8351168143,-0.0000021118
 Recover connectivity data from disk.
 ITRead=  0  0
 MicOpt= -1 -1
 NAtoms=      2 NQM=        2 NQMF=       0 NMMI=      0 NMMIF=      0
                NMic=       0 NMicF=      0.
                    Isotopes and Nuclear Properties:
 (Nuclear quadrupole moments (NQMom) in fm**2, nuclear magnetic moments (NMagM)
  in nuclear magnetons)

  Atom         1           2
 IAtWgt=           1           1
 AtmWgt=   1.0078250   1.0078250
 NucSpn=           1           1
 AtZEff=   1.0000000   1.0000000
 NQMom=    0.0000000   0.0000000
 NMagM=    2.7928460   2.7928460
 AtZNuc=   1.0000000   1.0000000
 Leave Link  101 at Tue Aug 16 11:26:21 2022, MaxMem=  2147483648 cpu:               7.3 elap:               0.4
 (Enter /sw/linux/gaussian/g16/g16/l103.exe)

 GradGradGradGradGradGradGradGradGradGradGradGradGradGradGradGradGradGrad
 Berny optimization.
 Initialization pass.
                           ----------------------------
                           !    Initial Parameters    !
                           ! (Angstroms and Degrees)  !
 --------------------------                            --------------------------
 ! Name  Definition              Value          Derivative Info.                !
 --------------------------------------------------------------------------------
 ! R1    R(1,2)                  0.7428         calculate D2E/DX2 analytically  !
 --------------------------------------------------------------------------------
 Trust Radius=3.00D-01 FncErr=1.00D-07 GrdErr=1.00D-07 EigMax=2.50D+02 EigMin=1.00D-04
 Number of steps in this run=      2 maximum allowed number of steps=      2.
 GradGradGradGradGradGradGradGradGradGradGradGradGradGradGradGradGradGrad

 Leave Link  103 at Tue Aug 16 11:26:21 2022, MaxMem=  2147483648 cpu:               1.3 elap:               0.1
 (Enter /sw/linux/gaussian/g16/g16/l202.exe)
                          Input orientation:                          
 ---------------------------------------------------------------------
 Center     Atomic      Atomic             Coordinates (Angstroms)
 Number     Number       Type             X           Y           Z
 ---------------------------------------------------------------------
      1          1           0       -0.553674    0.784465    0.000001
      2          1           0        0.187442    0.835117   -0.000002
 ---------------------------------------------------------------------
 Symmetry turned off by external request.
 Stoichiometry    H2
 Framework group  D*H[C*(H.H)]
 Deg. of freedom     1
 Full point group                 D*H     NOp   8
 Rotational constants (GHZ):           0.0000000        1817.4622353        1817.4622353
 Leave Link  202 at Tue Aug 16 11:26:22 2022, MaxMem=  2147483648 cpu:               2.1 elap:               0.2
 (Enter /sw/linux/gaussian/g16/g16/l301.exe)
 Standard basis: 6-31G(d,p) (6D, 7F)
 Ernie: Thresh=  0.10000D-02 Tol=  0.10000D-05 Strict=F.
    10 basis functions,    14 primitive gaussians,    10 cartesian basis functions
     1 alpha electrons        1 beta electrons
       nuclear repulsion energy         0.7123653791 Hartrees.
 IExCor=  402 DFT=T Ex+Corr=B3LYP ExCW=0 ScaHFX=  0.200000
 ScaDFX=  0.800000  0.720000  1.000000  0.810000 ScalE2=  1.000000  1.000000
 IRadAn=      5 IRanWt=     -1 IRanGd=            0 ICorTp=0 IEmpDi=141
 NAtoms=    2 NActive=    2 NUniq=    2 SFac= 1.00D+00 NAtFMM=   60 NAOKFM=F Big=F
 Integral buffers will be    131072 words long.
 Raffenetti 2 integral format.
 Two-electron integral symmetry is turned off.
 R6Disp:  Grimme-D3(BJ) Dispersion energy=       -0.0001407233 Hartrees.
 Nuclear repulsion after empirical dispersion term =        0.7122246559 Hartrees.
 Leave Link  301 at Tue Aug 16 11:26:22 2022, MaxMem=  2147483648 cpu:               2.5 elap:               0.2
 (Enter /sw/linux/gaussian/g16/g16/l302.exe)
 NPDir=0 NMtPBC=     1 NCelOv=     1 NCel=       1 NClECP=     1 NCelD=      1
         NCelK=      1 NCelE2=     1 NClLst=     1 CellRange=     0.0.
 One-electron integrals computed using PRISM.
 NBasis=    10 RedAO= T EigKep=  9.68D-02  NBF=    10
 NBsUse=    10 1.00D-06 EigRej= -1.00D+00 NBFU=    10
 Precomputing XC quadrature grid using
 IXCGrd= 4 IRadAn=           5 IRanWt=          -1 IRanGd=           0 AccXCQ= 0.00D+00.
 Generated NRdTot=       0 NPtTot=           0 NUsed=           0 NTot=          32
 NSgBfM=    10    10    10    10    10 MxSgAt=     2 MxSgA2=     2.
 Leave Link  302 at Tue Aug 16 11:26:22 2022, MaxMem=  2147483648 cpu:               3.2 elap:               0.2
 (Enter /sw/linux/gaussian/g16/g16/l303.exe)
 DipDrv:  MaxL=1.
 Leave Link  303 at Tue Aug 16 11:26:22 2022, MaxMem=  2147483648 cpu:               1.9 elap:               0.2
 (Enter /sw/linux/gaussian/g16/g16/l401.exe)
 Initial guess from the checkpoint file:  "/usr/scratch/link/Gau-22353.chk"
 B after Tr=     0.000000    0.000000    0.000000
         Rot=    1.000000    0.000000    0.000000    0.000000 Ang=   0.00 deg.
 Guess basis will be translated and rotated to current coordinates.
 JPrj=2 DoOrth=T DoCkMO=T.
 Leave Link  401 at Tue Aug 16 11:26:22 2022, MaxMem=  2147483648 cpu:               2.1 elap:               0.1
 (Enter /sw/linux/gaussian/g16/g16/l502.exe)
 Keep R1 ints in memory in canonical form, NReq=17249660.
 FoFCou: FMM=F IPFlag=           0 FMFlag=           0 FMFlg1=           0
         NFxFlg=           0 DoJE=F BraDBF=F KetDBF=F FulRan=T
         wScrn=  0.000000 ICntrl=       600 IOpCl=  0 I1Cent=           0 NGrid=           0
         NMat0=    1 NMatS0=     55 NMatT0=    0 NMatD0=    1 NMtDS0=    0 NMtDT0=    0
 Symmetry not used in FoFCou.
 Two-electron integral symmetry not used.
 Closed shell SCF:
 Using DIIS extrapolation, IDIIS=  1040.
 NGot=  2147483648 LenX=  2147480496 LenY=  2147479614
 Requested convergence on RMS density matrix=1.00D-08 within 128 cycles.
 Requested convergence on MAX density matrix=1.00D-06.
 Requested convergence on             energy=1.00D-06.
 No special actions if energy rises.

 Cycle   1  Pass 1  IDiag  1:
 E= -1.17868007880311    
 DIIS: error= 1.57D-15 at cycle   1 NSaved=   1.
 NSaved= 1 IEnMin= 1 EnMin= -1.17868007880311     IErMin= 1 ErrMin= 1.57D-15
 ErrMax= 1.57D-15  0.00D+00 EMaxC= 1.00D-01 BMatC= 1.43D-29 BMatP= 1.43D-29
 IDIUse=1 WtCom= 1.00D+00 WtEn= 0.00D+00
 Coeff-Com:  0.100D+01
 Coeff:      0.100D+01
 Gap=     0.533 Goal=   None    Shift=    0.000
 Skip diagonalization as Alpha Fock matrix is already diagonal.
 RMSDP=0.00D+00 MaxDP=0.00D+00              OVMax= 0.00D+00

 SCF Done:  E(RB3LYP) =  -1.17868007880     A.U. after    1 cycles
            NFock=  1  Conv=0.00D+00     -V/T= 2.0315
 KE= 1.142665419056D+00 PE=-3.645334332218D+00 EE= 6.117641784953D-01
 Leave Link  502 at Tue Aug 16 11:26:22 2022, MaxMem=  2147483648 cpu:               2.1 elap:               0.1
 (Enter /sw/linux/gaussian/g16/g16/l801.exe)
 DoSCS=F DFT=T ScalE2(SS,OS)=  1.000000  1.000000
 Range of M.O.s used for correlation:     1    10
 NBasis=    10 NAE=     1 NBE=     1 NFC=     0 NFV=     0
 NROrb=     10 NOA=     1 NOB=     1 NVA=     9 NVB=     9
 Leave Link  801 at Tue Aug 16 11:26:23 2022, MaxMem=  2147483648 cpu:               2.0 elap:               0.2
 (Enter /sw/linux/gaussian/g16/g16/l1101.exe)
 Using compressed storage, NAtomX=     2.
 Will process      3 centers per pass.
 R6Disp: Adding Grimme-D3(BJ) dispersion energy 1st derivatives to the gradient.
 Leave Link 1101 at Tue Aug 16 11:26:23 2022, MaxMem=  2147483648 cpu:               2.2 elap:               0.1
 (Enter /sw/linux/gaussian/g16/g16/l1102.exe)
 Symmetrizing basis deriv contribution to polar:
 IMax=3 JMax=2 DiffMx= 0.00D+00
 Leave Link 1102 at Tue Aug 16 11:26:23 2022, MaxMem=  2147483648 cpu:               0.6 elap:               0.1
 (Enter /sw/linux/gaussian/g16/g16/l1110.exe)
 Forming Gx(P) for the SCF density, NAtomX=     2.
 Integral derivatives from FoFJK, PRISM(SPDF).
 Do as many integral derivatives as possible in FoFJK.
 G2DrvN: MDV=    2147483364.
 G2DrvN: will do     3 centers at a time, making    1 passes.
 Calling FoFCou, ICntrl=  3107 FMM=F I1Cent=   0 AccDes= 0.00D+00.
 FoFJK:  IHMeth= 1 ICntrl=    3107 DoSepK=F KAlg= 0 I1Cent=           0 FoldK=F
 IRaf=         0 NMat=       1 IRICut=       1 DoRegI=T DoRafI=F ISym2E= 0 IDoP0=0 IntGTp=1.
 FoFCou: FMM=F IPFlag=           0 FMFlag=      100000 FMFlg1=           0
         NFxFlg=           0 DoJE=F BraDBF=F KetDBF=F FulRan=T
         wScrn=  0.000000 ICntrl=      3107 IOpCl=  0 I1Cent=           0 NGrid=           0
         NMat0=    1 NMatS0=      1 NMatT0=    0 NMatD0=    1 NMtDS0=    0 NMtDT0=    0
 Symmetry not used in FoFCou.
 End of G2Drv F.D. properties file   721 does not exist.
 End of G2Drv F.D. properties file   722 does not exist.
 End of G2Drv F.D. properties file   788 does not exist.
 Leave Link 1110 at Tue Aug 16 11:26:23 2022, MaxMem=  2147483648 cpu:               2.6 elap:               0.2
 (Enter /sw/linux/gaussian/g16/g16/l1002.exe)
 Minotr:  Closed shell wavefunction.
          IDoAtm=11
          Direct CPHF calculation.
          Differentiating once with respect to electric field.
                with respect to dipole field.
          Differentiating once with respect to nuclear coordinates.
          Requested convergence is 1.0D-08 RMS, and 1.0D-07 maximum.
          Secondary convergence is 1.0D-12 RMS, and 1.0D-12 maximum.
          NewPWx=T KeepS1=F KeepF1=F KeepIn=T MapXYZ=F SortEE=F KeepMc=T.
          569 words used for storage of precomputed grid.
 Keep R1 ints in memory in canonical form, NReq=17181453.
 FoFCou: FMM=F IPFlag=           0 FMFlag=           0 FMFlg1=           0
         NFxFlg=           0 DoJE=F BraDBF=F KetDBF=F FulRan=T
         wScrn=  0.000000 ICntrl=       600 IOpCl=  0 I1Cent=           0 NGrid=           0
         NMat0=    1 NMatS0=     55 NMatT0=    0 NMatD0=    1 NMtDS0=    0 NMtDT0=    0
 Symmetry not used in FoFCou.
 Two-electron integral symmetry not used.
          MDV=    2147483648 using IRadAn=       1.
          Solving linear equations simultaneously, MaxMat=       0.
          There are     9 degrees of freedom in the 1st order CPHF.  IDoFFX=6 NUNeed=     3.
      6 vectors produced by pass  0 Test12= 1.00D-16 1.11D-08 XBig12= 3.61D+00 1.90D+00.
 AX will form     6 AO Fock derivatives at one time.
      3 vectors produced by pass  1 Test12= 1.00D-16 1.11D-08 XBig12= 4.63D-02 2.14D-01.
 InvSVY:  IOpt=1 It=  1 EMax= 1.11D-16
 Solved reduced A of dimension     9 with     6 vectors.
 FullF1:  Do perturbations      1 to       3.
 Isotropic polarizability for W=    0.000000        2.51 Bohr**3.
 End of Minotr F.D. properties file   721 does not exist.
 End of Minotr F.D. properties file   722 does not exist.
 End of Minotr F.D. properties file   788 does not exist.
 Leave Link 1002 at Tue Aug 16 11:26:23 2022, MaxMem=  2147483648 cpu:               3.9 elap:               0.3
 (Enter /sw/linux/gaussian/g16/g16/l601.exe)
 Copying SCF densities to generalized density rwf, IOpCl= 0 IROHF=0.

 **********************************************************************

            Population analysis using the SCF Density.

 **********************************************************************

 Alpha  occ. eigenvalues --   -0.43157
 Alpha virt. eigenvalues --    0.10095   0.57702   1.03605   1.67471   1.67471
 Alpha virt. eigenvalues --    2.37878   2.61561   2.61561   4.15261
          Condensed to atoms (all electrons):
               1          2
     1  H    0.589026   0.410974
     2  H    0.410974   0.589026
 Mulliken charges:
               1
     1  H    0.000000
     2  H    0.000000
 Sum of Mulliken charges =   0.00000
 Mulliken charges with hydrogens summed into heavy atoms:
               1
 APT charges:
               1
     1  H    0.000000
     2  H    0.000000
 Sum of APT charges =   0.00000
 APT charges with hydrogens summed into heavy atoms:
               1
 Electronic spatial extent (au):  <R**2>=             10.0465
 Charge=              0.0000 electrons
 Dipole moment (field-independent basis, Debye):
    X=              0.0000    Y=              0.0000    Z=              0.0000  Tot=              0.0000
 Quadrupole moment (field-independent basis, Debye-Ang):
   XX=             -1.5100   YY=             -2.0267   ZZ=             -2.0292
   XY=              0.0355   XZ=              0.0000   YZ=              0.0000
 Traceless Quadrupole moment (field-independent basis, Debye-Ang):
   XX=              0.3453   YY=             -0.1714   ZZ=             -0.1738
   XY=              0.0355   XZ=              0.0000   YZ=              0.0000
 Octapole moment (field-independent basis, Debye-Ang**2):
  XXX=              0.8295  YYY=             -4.9237  ZZZ=              0.0000  XYY=              0.4286
  XXY=             -1.2358  XXZ=              0.0000  XZZ=              0.3716  YZZ=             -1.6432
  YYZ=              0.0000  XYZ=              0.0000
 Hexadecapole moment (field-independent basis, Debye-Ang**3):
 XXXX=             -3.0683 YYYY=             -9.8549 ZZZZ=             -1.8760 XXXY=              0.6480
 XXXZ=              0.0000 YYYX=              0.9381 YYYZ=              0.0000 ZZZX=              0.0000
 ZZZY=              0.0000 XXYY=             -1.8677 XXZZ=             -0.8561 YYZZ=             -1.9567
 XXYZ=              0.0000 YYXZ=              0.0000 ZZXY=              0.2898
 N-N= 7.122246558628D-01 E-N=-3.645334332218D+00  KE= 1.142665419056D+00
  Exact polarizability:   6.339   0.393   0.609   0.000   0.000   0.582
 Approx polarizability:   7.732   0.487   0.632   0.000   0.000   0.599
 No NMR shielding tensors so no spin-rotation constants.
 Leave Link  601 at Tue Aug 16 11:26:24 2022, MaxMem=  2147483648 cpu:               3.7 elap:               0.2
 (Enter /sw/linux/gaussian/g16/g16/l701.exe)
 ... and contract with generalized density number  0.
 Compute integral second derivatives.
 R6Disp: Adding Grimme-D3(BJ) dispersion energy 2nd derivatives to the Hessian.
 Leave Link  701 at Tue Aug 16 11:26:24 2022, MaxMem=  2147483648 cpu:               2.9 elap:               0.2
 (Enter /sw/linux/gaussian/g16/g16/l702.exe)
 L702 exits ... SP integral derivatives will be done elsewhere.
 Leave Link  702 at Tue Aug 16 11:26:24 2022, MaxMem=  2147483648 cpu:               1.6 elap:               0.1
 (Enter /sw/linux/gaussian/g16/g16/l703.exe)
 Integral derivatives from FoFJK, PRISM(SPDF).
 Compute integral second derivatives, UseDBF=F ICtDFT=           0.
 Calling FoFJK, ICntrl=    100127 FMM=F ISym2X=0 I1Cent= 0 IOpClX= 0 NMat=1 NMatS=1 NMatT=0.
 FoFJK:  IHMeth= 1 ICntrl=  100127 DoSepK=F KAlg= 0 I1Cent=           0 FoldK=F
 IRaf=         0 NMat=       1 IRICut=       1 DoRegI=T DoRafI=F ISym2E= 0 IDoP0=0 IntGTp=1.
 FoFCou: FMM=F IPFlag=           0 FMFlag=      100000 FMFlg1=         800
         NFxFlg=           0 DoJE=F BraDBF=F KetDBF=F FulRan=T
         wScrn=  0.000000 ICntrl=    100127 IOpCl=  0 I1Cent=           0 NGrid=           0
         NMat0=    1 NMatS0=      1 NMatT0=    0 NMatD0=    1 NMtDS0=    0 NMtDT0=    0
 Symmetry not used in FoFCou.
 Leave Link  703 at Tue Aug 16 11:26:24 2022, MaxMem=  2147483648 cpu:               3.7 elap:               0.2
 (Enter /sw/linux/gaussian/g16/g16/l716.exe)
 Dipole        =-9.99200722D-16-4.88498131D-15-1.14259239D-16
 Polarizability= 6.33877388D+00 3.93452685D-01 6.08821830D-01
                -2.07821136D-05-1.42035472D-06 5.81932025D-01
 Full mass-weighted force constant matrix:
 Low frequencies ---   -5.3773   -5.0673   -0.0002    0.0000    0.0001 4461.2550
 Diagonal vibrational polarizability:
        0.0000000       0.0000000       0.0000000
 Harmonic frequencies (cm**-1), IR intensities (KM/Mole), Raman scattering
 activities (A**4/AMU), depolarization ratios for plane and unpolarized
 incident light, reduced masses (AMU), force constants (mDyne/A),
 and normal coordinates:
                      1
                      A
 Frequencies --   4461.2550
 Red. masses --      1.0078
 Frc consts  --     11.8181
 IR Inten    --      0.0000
  Atom  AN      X      Y      Z
     1   1     0.71   0.05   0.00
     2   1    -0.71  -0.05   0.00

 -------------------
 - Thermochemistry -
 -------------------
 Temperature   298.150 Kelvin.  Pressure   1.00000 Atm.
 Atom     1 has atomic number  1 and mass   1.00783
 Atom     2 has atomic number  1 and mass   1.00783
 Molecular mass:     2.01565 amu.
 Principal axes and moments of inertia in atomic units:
                           1         2         3
     Eigenvalues --     0.00000   0.99300   0.99300
           X            0.99767   0.00000  -0.06819
           Y            0.06819   0.00000   0.99767
           Z            0.00000   1.00000   0.00000
 This molecule is a prolate symmetric top.
 Rotational symmetry number  2.
 Rotational temperature (Kelvin)     87.22444
 Rotational constant (GHZ):        1817.462235
 Zero-point vibrational energy      26684.2 (Joules/Mol)
                                    6.37768 (Kcal/Mol)
 Vibrational temperatures:   6418.75
          (Kelvin)
 
 Zero-point correction=                           0.010163 (Hartree/Particle)
 Thermal correction to Energy=                    0.012524
 Thermal correction to Enthalpy=                  0.013468
 Thermal correction to Gibbs Free Energy=        -0.001324
 Sum of electronic and zero-point Energies=             -1.168517
 Sum of electronic and thermal Energies=                -1.166156
 Sum of electronic and thermal Enthalpies=              -1.165212
 Sum of electronic and thermal Free Energies=           -1.180004
 
                     E (Thermal)             CV                S
                      KCal/Mol        Cal/Mol-Kelvin    Cal/Mol-Kelvin
 Total                    7.859              4.968             31.133
 Electronic               0.000              0.000              0.000
 Translational            0.889              2.981             28.080
 Rotational               0.592              1.987              3.052
 Vibrational              6.378              0.000              0.000
                       Q            Log10(Q)             Ln(Q)
 Total Bot       0.406413D+01          0.608968          1.402201
 Total V=0       0.192240D+06          5.283843         12.166499
 Vib (Bot)       0.211410D-04         -4.674875        -10.764298
 Vib (V=0)       0.100000D+01          0.000000          0.000000
 Electronic      0.100000D+01          0.000000          0.000000
 Translational   0.112480D+06          5.051077         11.630534
 Rotational      0.170910D+01          0.232767          0.535965
 -------------------------------------------------------------------
 Center     Atomic                   Forces (Hartrees/Bohr)
 Number     Number              X              Y              Z
 -------------------------------------------------------------------
      1        1          -0.000000690   -0.000000047    0.000000000
      2        1           0.000000690    0.000000047    0.000000000
 -------------------------------------------------------------------
 Cartesian Forces:  Max     0.000000690 RMS     0.000000400
 Force constants in Cartesian coordinates: 
                1             2             3             4             5 
      1  0.377778D+00
      2  0.258193D-01  0.176413D-02
      3 -0.136378D-05  0.000000D+00  0.000000D+00
      4 -0.377778D+00 -0.258193D-01  0.136378D-05  0.377778D+00
      5 -0.258193D-01 -0.176413D-02  0.000000D+00  0.258193D-01  0.176413D-02
      6  0.136378D-05  0.000000D+00  0.000000D+00 -0.136378D-05  0.000000D+00
                6 
      6  0.000000D+00
 FormGI is forming the generalized inverse of G from B-inverse, IUseBI=4.
 Force constants in internal coordinates: 
                1 
      1  0.379543D+00
 Leave Link  716 at Tue Aug 16 11:26:24 2022, MaxMem=  2147483648 cpu:               2.6 elap:               0.2
 (Enter /sw/linux/gaussian/g16/g16/l103.exe)

 GradGradGradGradGradGradGradGradGradGradGradGradGradGradGradGradGradGrad
 Berny optimization.
 Red2BG is reusing G-inverse.
 Internal  Forces:  Max     0.000000692 RMS     0.000000692
 Search for a local minimum.
 Step number   1 out of a maximum of    2
 All quantities printed in internal units (Hartrees-Bohrs-Radians)
 Second derivative matrix not updated -- analytic derivatives used.
 The second derivative matrix:
                          R1
           R1           0.37954
 ITU=  0
     Eigenvalues ---    0.37954
 Angle between quadratic step and forces=   0.00 degrees.
 Linear search not attempted -- first point.
 Iteration  1 RMS(Cart)=  0.00000129 RMS(Int)=  0.00000000
 Iteration  2 RMS(Cart)=  0.00000000 RMS(Int)=  0.00000000
 ITry= 1 IFail=0 DXMaxC= 9.09D-07 DCOld= 1.00D+10 DXMaxT= 3.00D-01 DXLimC= 3.00D+00 Rises=F
 Variable       Old X    -DE/DX   Delta X   Delta X   Delta X     New X
                                 (Linear)    (Quad)   (Total)
    R1        1.40377   0.00000   0.00000   0.00000   0.00000   1.40378
         Item               Value     Threshold  Converged?
 Maximum Force            0.000001     0.000450     YES
 RMS     Force            0.000001     0.000300     YES
 Maximum Displacement     0.000001     0.001800     YES
 RMS     Displacement     0.000001     0.001200     YES
 Predicted change in Energy=-6.307851D-13
 Optimization completed.
    -- Stationary point found.
                           ----------------------------
                           !   Optimized Parameters   !
                           ! (Angstroms and Degrees)  !
 --------------------------                            --------------------------
 ! Name  Definition              Value          Derivative Info.                !
 --------------------------------------------------------------------------------
 ! R1    R(1,2)                  0.7428         -DE/DX =    0.0                 !
 --------------------------------------------------------------------------------
 GradGradGradGradGradGradGradGradGradGradGradGradGradGradGradGradGradGrad

 Leave Link  103 at Tue Aug 16 11:26:24 2022, MaxMem=  2147483648 cpu:               0.7 elap:               0.1
 (Enter /sw/linux/gaussian/g16/g16/l9999.exe)
 Dipole is zero, so no output in dipole orientation.

 ----------------------------------------------------------------------

 Electric dipole moment (input orientation):
 (Debye = 10**-18 statcoulomb cm , SI units = C m)
                  (au)            (Debye)         (10**-30 SI)
   Tot        0.000000D+00      0.000000D+00      0.000000D+00
   x          0.000000D+00      0.000000D+00      0.000000D+00
   y          0.000000D+00      0.000000D+00      0.000000D+00
   z          0.000000D+00      0.000000D+00      0.000000D+00

 Dipole polarizability, Alpha (input orientation).
 (esu units = cm**3 , SI units = C**2 m**2 J**-1)
 Alpha(0;0):
               (au)            (10**-24 esu)      (10**-40 SI)
   iso        0.250984D+01      0.371920D+00      0.413817D+00
   aniso      0.578373D+01      0.857061D+00      0.953609D+00
   xx         0.633877D+01      0.939309D+00      0.104512D+01
   yx         0.393453D+00      0.583037D-01      0.648716D-01
   yy         0.608822D+00      0.902181D-01      0.100381D+00
   zx        -0.207821D-04     -0.307959D-05     -0.342651D-05
   zy         0.000000D+00      0.000000D+00      0.000000D+00
   zz         0.581932D+00      0.862334D-01      0.959476D-01

 ----------------------------------------------------------------------
 1\1\GINC-THINC349\Freq\RB3LYP\6-31G(d,p)\H2\LINK\16-Aug-2022\0\\#P Geo
 m=AllCheck Guess=TCheck SCRF=Check GenChk RB3LYP/6-31G(d,p) Freq\\TITL
 E\\0,1\H,-0.5536739244,0.7844651033,0.0000005636\H,0.1874424045,0.8351
 168143,-0.0000021118\\Version=ES64L-G16RevB.01\HF=-1.1786801\RMSD=0.00
 0e+00\RMSF=3.995e-07\ZeroPoint=0.0101635\Thermal=0.0125239\Dipole=0.,0
 .,0.\DipoleDeriv=0.,0.,0.,0.,0.,0.,0.,0.,0.,0.,0.,0.,0.,0.,0.,0.,0.,0.
 \Polar=6.3387739,0.3934527,0.6088218,-0.0000208,-0.0000014,0.581932\Qu
 adrupole=0.2566955,-0.1274464,-0.1292491,0.0263774,-0.0000014,0.\PG=D*
 H [C*(H1.H1)]\NImag=0\\0.37777811,0.02581929,0.00176413,-0.00000136,-0
 .00000009,-0.00000055,-0.37777811,-0.02581929,0.00000136,0.37777811,-0
 .02581929,-0.00176413,0.00000009,0.02581929,0.00176413,0.00000136,0.00
 000009,0.00000055,-0.00000136,-0.00000009,-0.00000055\\0.00000069,0.00
 000005,0.,-0.00000069,-0.00000005,0.\\\@


 FESTINA LENTE!
     - IMPERATOR AUGUSTUS 
 Job cpu time:       0 days  0 hours  0 minutes 51.3 seconds.
 Elapsed time:       0 days  0 hours  0 minutes  3.4 seconds.
 File lengths (MBytes):  RWF=      6 Int=      0 D2E=      0 Chk=      1 Scr=      1
 Normal termination of Gaussian 16 at Tue Aug 16 11:26:25 2022.
