 Entering Gaussian System, Link 0=g16
 Initial command:
 /sw/linux/gaussian/g16/g16/l1.exe "/usr/scratch/link/Gau-1031.inp" -scrdir="/usr/scratch/link/"
 Entering Link 1 = /sw/linux/gaussian/g16/g16/l1.exe PID=      1033.
  
 Copyright (c) 1988-2017, Gaussian, Inc.  All Rights Reserved.
  
 This is part of the Gaussian(R) 16 program.  It is based on
 the Gaussian(R) 09 system (copyright 2009, Gaussian, Inc.),
 the Gaussian(R) 03 system (copyright 2003, Gaussian, Inc.),
 the Gaussian(R) 98 system (copyright 1998, Gaussian, Inc.),
 the Gaussian(R) 94 system (copyright 1995, Gaussian, Inc.),
 the Gaussian 92(TM) system (copyright 1992, Gaussian, Inc.),
 the Gaussian 90(TM) system (copyright 1990, Gaussian, Inc.),
 the Gaussian 88(TM) system (copyright 1988, Gaussian, Inc.),
 the Gaussian 86(TM) system (copyright 1986, Carnegie Mellon
 University), and the Gaussian 82(TM) system (copyright 1983,
 Carnegie Mellon University). Gaussian is a federally registered
 trademark of Gaussian, Inc.
  
 This software contains proprietary and confidential information,
 including trade secrets, belonging to Gaussian, Inc.
  
 This software is provided under written license and may be
 used, copied, transmitted, or stored only in accord with that
 written license.
  
 The following legend is applicable only to US Government
 contracts under FAR:
  
                    RESTRICTED RIGHTS LEGEND
  
 Use, reproduction and disclosure by the US Government is
 subject to restrictions as set forth in subparagraphs (a)
 and (c) of the Commercial Computer Software - Restricted
 Rights clause in FAR 52.227-19.
  
 Gaussian, Inc.
 340 Quinnipiac St., Bldg. 40, Wallingford CT 06492
  
  
 ---------------------------------------------------------------
 Warning -- This program may not be used in any manner that
 competes with the business of Gaussian, Inc. or will provide
 assistance to any competitor of Gaussian, Inc.  The licensee
 of this program is prohibited from giving any competitor of
 Gaussian, Inc. access to this program.  By using this program,
 the user acknowledges that Gaussian, Inc. is engaged in the
 business of creating and licensing software in the field of
 computational chemistry and represents and warrants to the
 licensee that it is not a competitor of Gaussian, Inc. and that
 it will not use this program in any manner prohibited above.
 ---------------------------------------------------------------
  

 Cite this work as:
 Gaussian 16, Revision B.01,
 M. J. Frisch, G. W. Trucks, H. B. Schlegel, G. E. Scuseria, 
 M. A. Robb, J. R. Cheeseman, G. Scalmani, V. Barone, 
 G. A. Petersson, H. Nakatsuji, X. Li, M. Caricato, A. V. Marenich, 
 J. Bloino, B. G. Janesko, R. Gomperts, B. Mennucci, H. P. Hratchian, 
 J. V. Ortiz, A. F. Izmaylov, J. L. Sonnenberg, D. Williams-Young, 
 F. Ding, F. Lipparini, F. Egidi, J. Goings, B. Peng, A. Petrone, 
 T. Henderson, D. Ranasinghe, V. G. Zakrzewski, J. Gao, N. Rega, 
 G. Zheng, W. Liang, M. Hada, M. Ehara, K. Toyota, R. Fukuda, 
 J. Hasegawa, M. Ishida, T. Nakajima, Y. Honda, O. Kitao, H. Nakai, 
 T. Vreven, K. Throssell, J. A. Montgomery, Jr., J. E. Peralta, 
 F. Ogliaro, M. J. Bearpark, J. J. Heyd, E. N. Brothers, K. N. Kudin, 
 V. N. Staroverov, T. A. Keith, R. Kobayashi, J. Normand, 
 K. Raghavachari, A. P. Rendell, J. C. Burant, S. S. Iyengar, 
 J. Tomasi, M. Cossi, J. M. Millam, M. Klene, C. Adamo, R. Cammi, 
 J. W. Ochterski, R. L. Martin, K. Morokuma, O. Farkas, 
 J. B. Foresman, and D. J. Fox, Gaussian, Inc., Wallingford CT, 2016.
 
 ******************************************
 Gaussian 16:  ES64L-G16RevB.01 20-Dec-2017
                16-Aug-2022 
 ******************************************
 %nprocs=20
 Will use up to   20 processors via shared memory.
 %mem=16GB
 -------------------------------------------------------------
 #P opt freq b3lyp/6-31G(d,p) nosymm empiricaldispersion=GD3BJ
 -------------------------------------------------------------
 1/18=20,19=15,26=3,38=1/1,3;
 2/9=110,12=2,15=1,17=6,18=5,40=1/2;
 3/5=1,6=6,7=101,11=2,25=1,30=1,71=1,74=-5,124=41/1,2,3;
 4//1;
 5/5=2,38=5/2;
 6/7=2,8=2,9=2,10=2,28=1/1;
 7/30=1/1,2,3,16;
 1/18=20,19=15,26=3/3(2);
 2/9=110,15=1/2;
 99//99;
 2/9=110,15=1/2;
 3/5=1,6=6,7=101,11=2,25=1,30=1,71=1,74=-5,124=41/1,2,3;
 4/5=5,16=3,69=1/1;
 5/5=2,38=5/2;
 7/30=1/1,2,3,16;
 1/18=20,19=15,26=3/3(-5);
 2/9=110,15=1/2;
 6/7=2,8=2,9=2,10=2,19=2,28=1/1;
 99/9=1/99;
 Leave Link    1 at Tue Aug 16 11:26:18 2022, MaxMem=  2147483648 cpu:               1.4 elap:               0.1
 (Enter /sw/linux/gaussian/g16/g16/l101.exe)
 -----
 TITLE
 -----
 Symbolic Z-matrix:
 Charge =  0 Multiplicity = 1
 N                    -0.78638   0.32043  -0.71962 
 N                     0.01781   0.22577   0.02227 
 
 ITRead=  0  0
 MicOpt= -1 -1
 NAtoms=      2 NQM=        2 NQMF=       0 NMMI=      0 NMMIF=      0
                NMic=       0 NMicF=      0.
                    Isotopes and Nuclear Properties:
 (Nuclear quadrupole moments (NQMom) in fm**2, nuclear magnetic moments (NMagM)
  in nuclear magnetons)

  Atom         1           2
 IAtWgt=          14          14
 AtmWgt=  14.0030740  14.0030740
 NucSpn=           2           2
 AtZEff=   0.0000000   0.0000000
 NQMom=    2.0440000   2.0440000
 NMagM=    0.4037610   0.4037610
 AtZNuc=   7.0000000   7.0000000
 Leave Link  101 at Tue Aug 16 11:26:19 2022, MaxMem=  2147483648 cpu:               7.1 elap:               0.4
 (Enter /sw/linux/gaussian/g16/g16/l103.exe)

 GradGradGradGradGradGradGradGradGradGradGradGradGradGradGradGradGradGrad
 Berny optimization.
 Initialization pass.
                           ----------------------------
                           !    Initial Parameters    !
                           ! (Angstroms and Degrees)  !
 --------------------------                            --------------------------
 ! Name  Definition              Value          Derivative Info.                !
 --------------------------------------------------------------------------------
 ! R1    R(1,2)                  1.0982         estimate D2E/DX2                !
 --------------------------------------------------------------------------------
 Trust Radius=3.00D-01 FncErr=1.00D-07 GrdErr=1.00D-06 EigMax=2.50D+02 EigMin=1.00D-04
 Number of steps in this run=     20 maximum allowed number of steps=    100.
 GradGradGradGradGradGradGradGradGradGradGradGradGradGradGradGradGradGrad

 Leave Link  103 at Tue Aug 16 11:26:19 2022, MaxMem=  2147483648 cpu:               1.3 elap:               0.1
 (Enter /sw/linux/gaussian/g16/g16/l202.exe)
                          Input orientation:                          
 ---------------------------------------------------------------------
 Center     Atomic      Atomic             Coordinates (Angstroms)
 Number     Number       Type             X           Y           Z
 ---------------------------------------------------------------------
      1          7           0       -0.786379    0.320435   -0.719621
      2          7           0        0.017810    0.225768    0.022273
 ---------------------------------------------------------------------
 Symmetry turned off by external request.
 Stoichiometry    N2
 Framework group  D*H[C*(N.N)]
 Deg. of freedom     1
 Full point group                 D*H     NOp   8
 Rotational constants (GHZ):           0.0000000          59.8472963          59.8472963
 Leave Link  202 at Tue Aug 16 11:26:19 2022, MaxMem=  2147483648 cpu:               2.3 elap:               0.2
 (Enter /sw/linux/gaussian/g16/g16/l301.exe)
 Standard basis: 6-31G(d,p) (6D, 7F)
 Ernie: Thresh=  0.10000D-02 Tol=  0.10000D-05 Strict=F.
    30 basis functions,    56 primitive gaussians,    30 cartesian basis functions
     7 alpha electrons        7 beta electrons
       nuclear repulsion energy        23.6106299696 Hartrees.
 IExCor=  402 DFT=T Ex+Corr=B3LYP ExCW=0 ScaHFX=  0.200000
 ScaDFX=  0.800000  0.720000  1.000000  0.810000 ScalE2=  1.000000  1.000000
 IRadAn=      5 IRanWt=     -1 IRanGd=            0 ICorTp=0 IEmpDi=141
 NAtoms=    2 NActive=    2 NUniq=    2 SFac= 1.00D+00 NAtFMM=   60 NAOKFM=F Big=F
 Integral buffers will be    131072 words long.
 Raffenetti 2 integral format.
 Two-electron integral symmetry is turned off.
 R6Disp:  Grimme-D3(BJ) Dispersion energy=       -0.0007525672 Hartrees.
 Nuclear repulsion after empirical dispersion term =       23.6098774024 Hartrees.
 Leave Link  301 at Tue Aug 16 11:26:19 2022, MaxMem=  2147483648 cpu:               2.3 elap:               0.2
 (Enter /sw/linux/gaussian/g16/g16/l302.exe)
 NPDir=0 NMtPBC=     1 NCelOv=     1 NCel=       1 NClECP=     1 NCelD=      1
         NCelK=      1 NCelE2=     1 NClLst=     1 CellRange=     0.0.
 One-electron integrals computed using PRISM.
 NBasis=    30 RedAO= T EigKep=  4.35D-03  NBF=    30
 NBsUse=    30 1.00D-06 EigRej= -1.00D+00 NBFU=    30
 Precomputing XC quadrature grid using
 IXCGrd= 4 IRadAn=           5 IRanWt=          -1 IRanGd=           0 AccXCQ= 0.00D+00.
 Generated NRdTot=       0 NPtTot=           0 NUsed=           0 NTot=          32
 NSgBfM=    30    30    30    30    30 MxSgAt=     2 MxSgA2=     2.
 Leave Link  302 at Tue Aug 16 11:26:19 2022, MaxMem=  2147483648 cpu:               3.5 elap:               0.2
 (Enter /sw/linux/gaussian/g16/g16/l303.exe)
 DipDrv:  MaxL=1.
 Leave Link  303 at Tue Aug 16 11:26:19 2022, MaxMem=  2147483648 cpu:               1.1 elap:               0.1
 (Enter /sw/linux/gaussian/g16/g16/l401.exe)
 ExpMin= 2.12D-01 ExpMax= 4.17D+03 ExpMxC= 6.27D+02 IAcc=3 IRadAn=         5 AccDes= 0.00D+00
 Harris functional with IExCor=  402 and IRadAn=       5 diagonalized for initial guess.
 HarFok:  IExCor=  402 AccDes= 0.00D+00 IRadAn=         5 IDoV= 1 UseB2=F ITyADJ=14
 ICtDFT=  3500011 ScaDFX=  1.000000  1.000000  1.000000  1.000000
 FoFCou: FMM=F IPFlag=           0 FMFlag=      100000 FMFlg1=           0
         NFxFlg=           0 DoJE=T BraDBF=F KetDBF=T FulRan=T
         wScrn=  0.000000 ICntrl=       500 IOpCl=  0 I1Cent=   200000004 NGrid=           0
         NMat0=    1 NMatS0=      1 NMatT0=    0 NMatD0=    1 NMtDS0=    0 NMtDT0=    0
 Symmetry not used in FoFCou.
 Harris En= -109.493173908370    
 JPrj=0 DoOrth=F DoCkMO=F.
 Leave Link  401 at Tue Aug 16 11:26:20 2022, MaxMem=  2147483648 cpu:               3.3 elap:               0.2
 (Enter /sw/linux/gaussian/g16/g16/l502.exe)
 Keep R1 ints in memory in canonical form, NReq=17380169.
 FoFCou: FMM=F IPFlag=           0 FMFlag=           0 FMFlg1=           0
         NFxFlg=           0 DoJE=F BraDBF=F KetDBF=F FulRan=T
         wScrn=  0.000000 ICntrl=       600 IOpCl=  0 I1Cent=           0 NGrid=           0
         NMat0=    1 NMatS0=    465 NMatT0=    0 NMatD0=    1 NMtDS0=    0 NMtDT0=    0
 Symmetry not used in FoFCou.
 Two-electron integral symmetry not used.
 Closed shell SCF:
 Using DIIS extrapolation, IDIIS=  1040.
 NGot=  2147483648 LenX=  2147372537 LenY=  2147371196
 Requested convergence on RMS density matrix=1.00D-08 within 128 cycles.
 Requested convergence on MAX density matrix=1.00D-06.
 Requested convergence on             energy=1.00D-06.
 No special actions if energy rises.
 Integral accuracy reduced to 1.0D-05 until final iterations.

 Cycle   1  Pass 0  IDiag  1:
 E= -109.520908052289    
 DIIS: error= 1.46D-02 at cycle   1 NSaved=   1.
 NSaved= 1 IEnMin= 1 EnMin= -109.520908052289     IErMin= 1 ErrMin= 1.46D-02
 ErrMax= 1.46D-02  0.00D+00 EMaxC= 1.00D-01 BMatC= 5.90D-03 BMatP= 5.90D-03
 IDIUse=3 WtCom= 8.54D-01 WtEn= 1.46D-01
 Coeff-Com:  0.100D+01
 Coeff-En:   0.100D+01
 Coeff:      0.100D+01
 Gap=     0.406 Goal=   None    Shift=    0.000
 GapD=    0.406 DampG=2.000 DampE=0.500 DampFc=1.0000 IDamp=-1.
 RMSDP=2.58D-03 MaxDP=1.62D-02              OVMax= 2.67D-02

 Cycle   2  Pass 0  IDiag  1:
 E= -109.523806421540     Delta-E=       -0.002898369250 Rises=F Damp=F
 DIIS: error= 6.11D-03 at cycle   2 NSaved=   2.
 NSaved= 2 IEnMin= 2 EnMin= -109.523806421540     IErMin= 2 ErrMin= 6.11D-03
 ErrMax= 6.11D-03  0.00D+00 EMaxC= 1.00D-01 BMatC= 9.95D-04 BMatP= 5.90D-03
 IDIUse=3 WtCom= 9.39D-01 WtEn= 6.11D-02
 Coeff-Com:  0.245D+00 0.755D+00
 Coeff-En:   0.000D+00 0.100D+01
 Coeff:      0.230D+00 0.770D+00
 Gap=     0.407 Goal=   None    Shift=    0.000
 RMSDP=1.28D-03 MaxDP=8.68D-03 DE=-2.90D-03 OVMax= 9.97D-03

 Cycle   3  Pass 0  IDiag  1:
 E= -109.524662275737     Delta-E=       -0.000855854197 Rises=F Damp=F
 DIIS: error= 1.61D-03 at cycle   3 NSaved=   3.
 NSaved= 3 IEnMin= 3 EnMin= -109.524662275737     IErMin= 3 ErrMin= 1.61D-03
 ErrMax= 1.61D-03  0.00D+00 EMaxC= 1.00D-01 BMatC= 7.00D-05 BMatP= 9.95D-04
 IDIUse=3 WtCom= 9.84D-01 WtEn= 1.61D-02
 Coeff-Com:  0.216D-02 0.210D+00 0.788D+00
 Coeff-En:   0.000D+00 0.000D+00 0.100D+01
 Coeff:      0.213D-02 0.206D+00 0.791D+00
 Gap=     0.407 Goal=   None    Shift=    0.000
 RMSDP=2.73D-04 MaxDP=1.90D-03 DE=-8.56D-04 OVMax= 2.33D-03

 Cycle   4  Pass 0  IDiag  1:
 E= -109.524727249537     Delta-E=       -0.000064973801 Rises=F Damp=F
 DIIS: error= 9.80D-05 at cycle   4 NSaved=   4.
 NSaved= 4 IEnMin= 4 EnMin= -109.524727249537     IErMin= 4 ErrMin= 9.80D-05
 ErrMax= 9.80D-05  0.00D+00 EMaxC= 1.00D-01 BMatC= 2.03D-07 BMatP= 7.00D-05
 IDIUse=1 WtCom= 1.00D+00 WtEn= 0.00D+00
 Coeff-Com: -0.603D-03 0.438D-01 0.186D+00 0.770D+00
 Coeff:     -0.603D-03 0.438D-01 0.186D+00 0.770D+00
 Gap=     0.406 Goal=   None    Shift=    0.000
 RMSDP=1.35D-05 MaxDP=1.55D-04 DE=-6.50D-05 OVMax= 9.09D-05

 Cycle   5  Pass 0  IDiag  1:
 E= -109.524727395196     Delta-E=       -0.000000145659 Rises=F Damp=F
 DIIS: error= 2.88D-06 at cycle   5 NSaved=   5.
 NSaved= 5 IEnMin= 5 EnMin= -109.524727395196     IErMin= 5 ErrMin= 2.88D-06
 ErrMax= 2.88D-06  0.00D+00 EMaxC= 1.00D-01 BMatC= 1.81D-10 BMatP= 2.03D-07
 IDIUse=1 WtCom= 1.00D+00 WtEn= 0.00D+00
 Coeff-Com: -0.435D-04-0.245D-02-0.861D-02-0.337D-01 0.104D+01
 Coeff:     -0.435D-04-0.245D-02-0.861D-02-0.337D-01 0.104D+01
 Gap=     0.406 Goal=   None    Shift=    0.000
 RMSDP=6.22D-07 MaxDP=4.71D-06 DE=-1.46D-07 OVMax= 5.03D-06

 Initial convergence to 1.0D-05 achieved.  Increase integral accuracy.
 Cycle   6  Pass 1  IDiag  1:
 E= -109.524727349858     Delta-E=        0.000000045338 Rises=F Damp=F
 DIIS: error= 2.82D-07 at cycle   1 NSaved=   1.
 NSaved= 1 IEnMin= 1 EnMin= -109.524727349858     IErMin= 1 ErrMin= 2.82D-07
 ErrMax= 2.82D-07  0.00D+00 EMaxC= 1.00D-01 BMatC= 3.66D-12 BMatP= 3.66D-12
 IDIUse=1 WtCom= 1.00D+00 WtEn= 0.00D+00
 Coeff-Com:  0.100D+01
 Coeff:      0.100D+01
 Gap=     0.406 Goal=   None    Shift=    0.000
 RMSDP=6.22D-07 MaxDP=4.71D-06 DE= 4.53D-08 OVMax= 7.74D-07

 Cycle   7  Pass 1  IDiag  1:
 E= -109.524727349862     Delta-E=       -0.000000000004 Rises=F Damp=F
 DIIS: error= 1.10D-07 at cycle   2 NSaved=   2.
 NSaved= 2 IEnMin= 2 EnMin= -109.524727349862     IErMin= 2 ErrMin= 1.10D-07
 ErrMax= 1.10D-07  0.00D+00 EMaxC= 1.00D-01 BMatC= 2.99D-13 BMatP= 3.66D-12
 IDIUse=1 WtCom= 1.00D+00 WtEn= 0.00D+00
 Coeff-Com:  0.140D+00 0.860D+00
 Coeff:      0.140D+00 0.860D+00
 Gap=     0.406 Goal=   None    Shift=    0.000
 RMSDP=3.03D-08 MaxDP=2.62D-07 DE=-3.75D-12 OVMax= 2.21D-07

 Cycle   8  Pass 1  IDiag  1:
 E= -109.524727349862     Delta-E=        0.000000000000 Rises=F Damp=F
 DIIS: error= 4.12D-08 at cycle   3 NSaved=   3.
 NSaved= 3 IEnMin= 3 EnMin= -109.524727349862     IErMin= 3 ErrMin= 4.12D-08
 ErrMax= 4.12D-08  0.00D+00 EMaxC= 1.00D-01 BMatC= 4.79D-14 BMatP= 2.99D-13
 IDIUse=1 WtCom= 1.00D+00 WtEn= 0.00D+00
 Coeff-Com: -0.184D-01 0.267D+00 0.752D+00
 Coeff:     -0.184D-01 0.267D+00 0.752D+00
 Gap=     0.406 Goal=   None    Shift=    0.000
 RMSDP=6.77D-09 MaxDP=4.72D-08 DE=-2.84D-14 OVMax= 6.18D-08

 SCF Done:  E(RB3LYP) =  -109.524727350     A.U. after    8 cycles
            NFock=  8  Conv=0.68D-08     -V/T= 2.0093
 KE= 1.085163527110D+02 PE=-3.029752303309D+02 EE= 6.132427286766D+01
 Leave Link  502 at Tue Aug 16 11:26:20 2022, MaxMem=  2147483648 cpu:               5.6 elap:               0.3
 (Enter /sw/linux/gaussian/g16/g16/l601.exe)
 Copying SCF densities to generalized density rwf, IOpCl= 0 IROHF=0.

 **********************************************************************

            Population analysis using the SCF Density.

 **********************************************************************

 Alpha  occ. eigenvalues --  -14.44505 -14.44330  -1.12817  -0.55143  -0.46468
 Alpha  occ. eigenvalues --   -0.46468  -0.42714
 Alpha virt. eigenvalues --   -0.02065  -0.02065   0.41684   0.58921   0.60450
 Alpha virt. eigenvalues --    0.60450   0.64032   0.75242   0.75242   0.79447
 Alpha virt. eigenvalues --    1.24637   1.44759   1.44759   1.55447   1.55447
 Alpha virt. eigenvalues --    1.94354   1.94354   2.41036   2.60102   2.60102
 Alpha virt. eigenvalues --    2.83139   3.29098   3.59411
          Condensed to atoms (all electrons):
               1          2
     1  N    6.445537   0.554463
     2  N    0.554463   6.445537
 Mulliken charges:
               1
     1  N    0.000000
     2  N    0.000000
 Sum of Mulliken charges =   0.00000
 Mulliken charges with hydrogens summed into heavy atoms:
               1
     1  N    0.000000
     2  N    0.000000
 Electronic spatial extent (au):  <R**2>=             55.7989
 Charge=              0.0000 electrons
 Dipole moment (field-independent basis, Debye):
    X=              0.0000    Y=              0.0000    Z=              0.0000  Tot=              0.0000
 Quadrupole moment (field-independent basis, Debye-Ang):
   XX=            -10.8707   YY=            -10.0388   ZZ=            -10.7451
   XY=              0.0993   XZ=             -0.7783   YZ=              0.0916
 Traceless Quadrupole moment (field-independent basis, Debye-Ang):
   XX=             -0.3192   YY=              0.5127   ZZ=             -0.1936
   XY=              0.0993   XZ=             -0.7783   YZ=              0.0916
 Octapole moment (field-independent basis, Debye-Ang**2):
  XXX=             12.5324  YYY=             -8.2249  ZZZ=             11.2396  XYY=              3.9120
  XXY=             -3.0451  XXZ=              4.3885  XZZ=              4.6719  YZZ=             -2.9984
  YYZ=              3.5503  XYZ=             -0.2824
 Hexadecapole moment (field-independent basis, Debye-Ang**3):
 XXXX=            -29.0367 YYYY=            -12.6148 ZZZZ=            -25.4617 XXXY=              4.1759
 XXXZ=            -10.2731 YYYX=              3.8204 YYYZ=              3.4764 ZZZX=            -10.0767
 ZZZY=              3.7473 XXYY=             -6.8283 XXZZ=             -9.8455 YYZZ=             -6.2804
 XXYZ=              1.5015 YYXZ=             -3.1119 ZZXY=              1.5866
 N-N= 2.360987740238D+01 E-N=-3.029752319853D+02  KE= 1.085163527110D+02
 No NMR shielding tensors so no spin-rotation constants.
 Leave Link  601 at Tue Aug 16 11:26:20 2022, MaxMem=  2147483648 cpu:               3.0 elap:               0.2
 (Enter /sw/linux/gaussian/g16/g16/l701.exe)
 ... and contract with generalized density number  0.
 Compute integral first derivatives.
 R6Disp: Adding Grimme-D3(BJ) dispersion energy 1st derivatives to the gradient.
 Leave Link  701 at Tue Aug 16 11:26:20 2022, MaxMem=  2147483648 cpu:               2.5 elap:               0.2
 (Enter /sw/linux/gaussian/g16/g16/l702.exe)
 L702 exits ... SP integral derivatives will be done elsewhere.
 Leave Link  702 at Tue Aug 16 11:26:20 2022, MaxMem=  2147483648 cpu:               1.2 elap:               0.1
 (Enter /sw/linux/gaussian/g16/g16/l703.exe)
 Integral derivatives from FoFJK, PRISM(SPDF).
 Compute integral first derivatives, UseDBF=F ICtDFT=           0.
 Calling FoFJK, ICntrl=      2127 FMM=F ISym2X=0 I1Cent= 0 IOpClX= 0 NMat=1 NMatS=1 NMatT=0.
 FoFJK:  IHMeth= 1 ICntrl=    2127 DoSepK=F KAlg= 0 I1Cent=           0 FoldK=F
 IRaf=         0 NMat=       1 IRICut=       1 DoRegI=T DoRafI=F ISym2E= 0 IDoP0=0 IntGTp=1.
 FoFCou: FMM=F IPFlag=           0 FMFlag=      100000 FMFlg1=         800
         NFxFlg=           0 DoJE=F BraDBF=F KetDBF=F FulRan=T
         wScrn=  0.000000 ICntrl=      2127 IOpCl=  0 I1Cent=           0 NGrid=           0
         NMat0=    1 NMatS0=      1 NMatT0=    0 NMatD0=    1 NMtDS0=    0 NMtDT0=    0
 Symmetry not used in FoFCou.
 Leave Link  703 at Tue Aug 16 11:26:21 2022, MaxMem=  2147483648 cpu:               4.4 elap:               0.3
 (Enter /sw/linux/gaussian/g16/g16/l716.exe)
 Dipole        = 3.96183086D-13-2.84217094D-14 3.54383189D-13
 -------------------------------------------------------------------
 Center     Atomic                   Forces (Hartrees/Bohr)
 Number     Number              X              Y              Z
 -------------------------------------------------------------------
      1        7          -0.016534486    0.001946463   -0.015254070
      2        7           0.016534486   -0.001946463    0.015254070
 -------------------------------------------------------------------
 Cartesian Forces:  Max     0.016534486 RMS     0.013036674
 Leave Link  716 at Tue Aug 16 11:26:21 2022, MaxMem=  2147483648 cpu:               0.9 elap:               0.1
 (Enter /sw/linux/gaussian/g16/g16/l103.exe)

 GradGradGradGradGradGradGradGradGradGradGradGradGradGradGradGradGradGrad
 Berny optimization.
 FormGI is forming the generalized inverse of G from B-inverse, IUseBI=4.
 Internal  Forces:  Max     0.022580182 RMS     0.022580182
 Search for a local minimum.
 Step number   1 out of a maximum of   20
 All quantities printed in internal units (Hartrees-Bohrs-Radians)
 RMS Force = .22580D-01 SwitMx=.10000D-02 MixMth= 1
 Mixed Optimization -- RFO/linear search
 Second derivative matrix not updated -- first step.
 The second derivative matrix:
                          R1
           R1           1.78526
 ITU=  0
     Eigenvalues ---    1.78526
 RFO step:  Lambda=-2.85551573D-04 EMin= 1.78525746D+00
 Linear search not attempted -- first point.
 Iteration  1 RMS(Cart)=  0.00894215 RMS(Int)=  0.00000000
 Iteration  2 RMS(Cart)=  0.00000000 RMS(Int)=  0.00000000
 ITry= 1 IFail=0 DXMaxC= 4.63D-03 DCOld= 1.00D+10 DXMaxT= 3.00D-01 DXLimC= 3.00D+00 Rises=F
 Variable       Old X    -DE/DX   Delta X   Delta X   Delta X     New X
                                 (Linear)    (Quad)   (Total)
    R1        2.07534   0.02258   0.00000   0.01265   0.01265   2.08798
         Item               Value     Threshold  Converged?
 Maximum Force            0.022580     0.000450     NO 
 RMS     Force            0.022580     0.000300     NO 
 Maximum Displacement     0.004630     0.001800     NO 
 RMS     Displacement     0.008942     0.001200     NO 
 Predicted change in Energy=-1.427986D-04
 Lowest energy point so far.  Saving SCF results.
 GradGradGradGradGradGradGradGradGradGradGradGradGradGradGradGradGradGrad

 Leave Link  103 at Tue Aug 16 11:26:21 2022, MaxMem=  2147483648 cpu:               2.4 elap:               0.2
 (Enter /sw/linux/gaussian/g16/g16/l202.exe)
                          Input orientation:                          
 ---------------------------------------------------------------------
 Center     Atomic      Atomic             Coordinates (Angstroms)
 Number     Number       Type             X           Y           Z
 ---------------------------------------------------------------------
      1          7           0       -0.788829    0.320723   -0.721882
      2          7           0        0.020260    0.225480    0.024534
 ---------------------------------------------------------------------
 Symmetry turned off by external request.
 Stoichiometry    N2
 Framework group  D*H[C*(N.N)]
 Deg. of freedom     1
 Full point group                 D*H     NOp   8
 Rotational constants (GHZ):           0.0000000          59.1245471          59.1245471
 Leave Link  202 at Tue Aug 16 11:26:21 2022, MaxMem=  2147483648 cpu:               3.0 elap:               0.2
 (Enter /sw/linux/gaussian/g16/g16/l301.exe)
 Standard basis: 6-31G(d,p) (6D, 7F)
 Ernie: Thresh=  0.10000D-02 Tol=  0.10000D-05 Strict=F.
    30 basis functions,    56 primitive gaussians,    30 cartesian basis functions
     7 alpha electrons        7 beta electrons
       nuclear repulsion energy        23.4676293774 Hartrees.
 IExCor=  402 DFT=T Ex+Corr=B3LYP ExCW=0 ScaHFX=  0.200000
 ScaDFX=  0.800000  0.720000  1.000000  0.810000 ScalE2=  1.000000  1.000000
 IRadAn=      5 IRanWt=     -1 IRanGd=            0 ICorTp=0 IEmpDi=141
 NAtoms=    2 NActive=    2 NUniq=    2 SFac= 1.00D+00 NAtFMM=   60 NAOKFM=F Big=F
 Integral buffers will be    131072 words long.
 Raffenetti 2 integral format.
 Two-electron integral symmetry is turned off.
 R6Disp:  Grimme-D3(BJ) Dispersion energy=       -0.0007525474 Hartrees.
 Nuclear repulsion after empirical dispersion term =       23.4668768300 Hartrees.
 Leave Link  301 at Tue Aug 16 11:26:21 2022, MaxMem=  2147483648 cpu:               1.7 elap:               0.1
 (Enter /sw/linux/gaussian/g16/g16/l302.exe)
 NPDir=0 NMtPBC=     1 NCelOv=     1 NCel=       1 NClECP=     1 NCelD=      1
         NCelK=      1 NCelE2=     1 NClLst=     1 CellRange=     0.0.
 One-electron integrals computed using PRISM.
 NBasis=    30 RedAO= T EigKep=  4.48D-03  NBF=    30
 NBsUse=    30 1.00D-06 EigRej= -1.00D+00 NBFU=    30
 Precomputing XC quadrature grid using
 IXCGrd= 4 IRadAn=           5 IRanWt=          -1 IRanGd=           0 AccXCQ= 0.00D+00.
 Generated NRdTot=       0 NPtTot=           0 NUsed=           0 NTot=          32
 NSgBfM=    30    30    30    30    30 MxSgAt=     2 MxSgA2=     2.
 Leave Link  302 at Tue Aug 16 11:26:21 2022, MaxMem=  2147483648 cpu:               3.3 elap:               0.2
 (Enter /sw/linux/gaussian/g16/g16/l303.exe)
 DipDrv:  MaxL=1.
 Leave Link  303 at Tue Aug 16 11:26:22 2022, MaxMem=  2147483648 cpu:               2.5 elap:               0.2
 (Enter /sw/linux/gaussian/g16/g16/l401.exe)
 Initial guess from the checkpoint file:  "/usr/scratch/link/Gau-1033.chk"
 B after Tr=     0.000000    0.000000    0.000000
         Rot=    1.000000    0.000000    0.000000    0.000000 Ang=   0.00 deg.
 Guess basis will be translated and rotated to current coordinates.
 JPrj=2 DoOrth=T DoCkMO=T.
 Leave Link  401 at Tue Aug 16 11:26:22 2022, MaxMem=  2147483648 cpu:               2.9 elap:               0.2
 (Enter /sw/linux/gaussian/g16/g16/l502.exe)
 Keep R1 ints in memory in canonical form, NReq=17380169.
 FoFCou: FMM=F IPFlag=           0 FMFlag=           0 FMFlg1=           0
         NFxFlg=           0 DoJE=F BraDBF=F KetDBF=F FulRan=T
         wScrn=  0.000000 ICntrl=       600 IOpCl=  0 I1Cent=           0 NGrid=           0
         NMat0=    1 NMatS0=    465 NMatT0=    0 NMatD0=    1 NMtDS0=    0 NMtDT0=    0
 Symmetry not used in FoFCou.
 Two-electron integral symmetry not used.
 Closed shell SCF:
 Using DIIS extrapolation, IDIIS=  1040.
 NGot=  2147483648 LenX=  2147372537 LenY=  2147371196
 Requested convergence on RMS density matrix=1.00D-08 within 128 cycles.
 Requested convergence on MAX density matrix=1.00D-06.
 Requested convergence on             energy=1.00D-06.
 No special actions if energy rises.

 Cycle   1  Pass 1  IDiag  1:
 E= -109.524848679499    
 DIIS: error= 8.96D-04 at cycle   1 NSaved=   1.
 NSaved= 1 IEnMin= 1 EnMin= -109.524848679499     IErMin= 1 ErrMin= 8.96D-04
 ErrMax= 8.96D-04  0.00D+00 EMaxC= 1.00D-01 BMatC= 2.62D-05 BMatP= 2.62D-05
 IDIUse=3 WtCom= 9.91D-01 WtEn= 8.96D-03
 Coeff-Com:  0.100D+01
 Coeff-En:   0.100D+01
 Coeff:      0.100D+01
 Gap=     2.743 Goal=   None    Shift=    0.000
 RMSDP=2.11D-04 MaxDP=1.31D-03              OVMax= 2.07D-03

 Cycle   2  Pass 1  IDiag  1:
 E= -109.524876232062     Delta-E=       -0.000027552563 Rises=F Damp=F
 DIIS: error= 3.49D-04 at cycle   2 NSaved=   2.
 NSaved= 2 IEnMin= 2 EnMin= -109.524876232062     IErMin= 2 ErrMin= 3.49D-04
 ErrMax= 3.49D-04  0.00D+00 EMaxC= 1.00D-01 BMatC= 4.50D-06 BMatP= 2.62D-05
 IDIUse=3 WtCom= 9.97D-01 WtEn= 3.49D-03
 Coeff-Com:  0.242D+00 0.758D+00
 Coeff-En:   0.000D+00 0.100D+01
 Coeff:      0.241D+00 0.759D+00
 Gap=     0.403 Goal=   None    Shift=    0.000
 RMSDP=8.58D-05 MaxDP=5.97D-04 DE=-2.76D-05 OVMax= 6.33D-04

 Cycle   3  Pass 1  IDiag  1:
 E= -109.524880010072     Delta-E=       -0.000003778010 Rises=F Damp=F
 DIIS: error= 1.03D-04 at cycle   3 NSaved=   3.
 NSaved= 3 IEnMin= 3 EnMin= -109.524880010072     IErMin= 3 ErrMin= 1.03D-04
 ErrMax= 1.03D-04  0.00D+00 EMaxC= 1.00D-01 BMatC= 2.68D-07 BMatP= 4.50D-06
 IDIUse=3 WtCom= 9.99D-01 WtEn= 1.03D-03
 Coeff-Com: -0.162D-01 0.178D+00 0.838D+00
 Coeff-En:   0.000D+00 0.000D+00 0.100D+01
 Coeff:     -0.162D-01 0.178D+00 0.838D+00
 Gap=     0.403 Goal=   None    Shift=    0.000
 RMSDP=1.60D-05 MaxDP=9.61D-05 DE=-3.78D-06 OVMax= 1.52D-04

 Cycle   4  Pass 1  IDiag  1:
 E= -109.524880265851     Delta-E=       -0.000000255779 Rises=F Damp=F
 DIIS: error= 2.73D-06 at cycle   4 NSaved=   4.
 NSaved= 4 IEnMin= 4 EnMin= -109.524880265851     IErMin= 4 ErrMin= 2.73D-06
 ErrMax= 2.73D-06  0.00D+00 EMaxC= 1.00D-01 BMatC= 1.93D-10 BMatP= 2.68D-07
 IDIUse=1 WtCom= 1.00D+00 WtEn= 0.00D+00
 Coeff-Com: -0.157D-02 0.438D-02 0.454D-01 0.952D+00
 Coeff:     -0.157D-02 0.438D-02 0.454D-01 0.952D+00
 Gap=     0.403 Goal=   None    Shift=    0.000
 RMSDP=5.25D-07 MaxDP=4.65D-06 DE=-2.56D-07 OVMax= 4.39D-06

 Cycle   5  Pass 1  IDiag  1:
 E= -109.524880266011     Delta-E=       -0.000000000161 Rises=F Damp=F
 DIIS: error= 4.03D-07 at cycle   5 NSaved=   5.
 NSaved= 5 IEnMin= 5 EnMin= -109.524880266011     IErMin= 5 ErrMin= 4.03D-07
 ErrMax= 4.03D-07  0.00D+00 EMaxC= 1.00D-01 BMatC= 4.53D-12 BMatP= 1.93D-10
 IDIUse=1 WtCom= 1.00D+00 WtEn= 0.00D+00
 Coeff-Com: -0.407D-04-0.128D-02-0.148D-02 0.172D+00 0.831D+00
 Coeff:     -0.407D-04-0.128D-02-0.148D-02 0.172D+00 0.831D+00
 Gap=     0.403 Goal=   None    Shift=    0.000
 RMSDP=8.03D-08 MaxDP=1.14D-06 DE=-1.61D-10 OVMax= 5.54D-07

 Cycle   6  Pass 1  IDiag  1:
 E= -109.524880266015     Delta-E=       -0.000000000003 Rises=F Damp=F
 DIIS: error= 9.84D-09 at cycle   6 NSaved=   6.
 NSaved= 6 IEnMin= 6 EnMin= -109.524880266015     IErMin= 6 ErrMin= 9.84D-09
 ErrMax= 9.84D-09  0.00D+00 EMaxC= 1.00D-01 BMatC= 3.43D-15 BMatP= 4.53D-12
 IDIUse=1 WtCom= 1.00D+00 WtEn= 0.00D+00
 Coeff-Com:  0.330D-05 0.284D-04-0.194D-04-0.798D-02-0.985D-02 0.102D+01
 Coeff:      0.330D-05 0.284D-04-0.194D-04-0.798D-02-0.985D-02 0.102D+01
 Gap=     0.403 Goal=   None    Shift=    0.000
 RMSDP=2.37D-09 MaxDP=2.64D-08 DE=-3.33D-12 OVMax= 1.44D-08

 SCF Done:  E(RB3LYP) =  -109.524880266     A.U. after    6 cycles
            NFock=  6  Conv=0.24D-08     -V/T= 2.0097
 KE= 1.084774212326D+02 PE=-3.026618720884D+02 EE= 6.119269375986D+01
 Leave Link  502 at Tue Aug 16 11:26:22 2022, MaxMem=  2147483648 cpu:               5.6 elap:               0.4
 (Enter /sw/linux/gaussian/g16/g16/l701.exe)
 ... and contract with generalized density number  0.
 Compute integral first derivatives.
 R6Disp: Adding Grimme-D3(BJ) dispersion energy 1st derivatives to the gradient.
 Leave Link  701 at Tue Aug 16 11:26:22 2022, MaxMem=  2147483648 cpu:               2.8 elap:               0.2
 (Enter /sw/linux/gaussian/g16/g16/l702.exe)
 L702 exits ... SP integral derivatives will be done elsewhere.
 Leave Link  702 at Tue Aug 16 11:26:23 2022, MaxMem=  2147483648 cpu:               2.1 elap:               0.2
 (Enter /sw/linux/gaussian/g16/g16/l703.exe)
 Integral derivatives from FoFJK, PRISM(SPDF).
 Compute integral first derivatives, UseDBF=F ICtDFT=           0.
 Calling FoFJK, ICntrl=      2127 FMM=F ISym2X=0 I1Cent= 0 IOpClX= 0 NMat=1 NMatS=1 NMatT=0.
 FoFJK:  IHMeth= 1 ICntrl=    2127 DoSepK=F KAlg= 0 I1Cent=           0 FoldK=F
 IRaf=         0 NMat=       1 IRICut=       1 DoRegI=T DoRafI=F ISym2E= 0 IDoP0=0 IntGTp=1.
 FoFCou: FMM=F IPFlag=           0 FMFlag=      100000 FMFlg1=         800
         NFxFlg=           0 DoJE=F BraDBF=F KetDBF=F FulRan=T
         wScrn=  0.000000 ICntrl=      2127 IOpCl=  0 I1Cent=           0 NGrid=           0
         NMat0=    1 NMatS0=      1 NMatT0=    0 NMatD0=    1 NMtDS0=    0 NMtDT0=    0
 Symmetry not used in FoFCou.
 Leave Link  703 at Tue Aug 16 11:26:23 2022, MaxMem=  2147483648 cpu:               4.1 elap:               0.2
 (Enter /sw/linux/gaussian/g16/g16/l716.exe)
 Dipole        = 4.98064923D-11-5.86108939D-12 4.59514649D-11
 -------------------------------------------------------------------
 Center     Atomic                   Forces (Hartrees/Bohr)
 Number     Number              X              Y              Z
 -------------------------------------------------------------------
      1        7          -0.001295468    0.000152531   -0.001195178
      2        7           0.001295468   -0.000152531    0.001195178
 -------------------------------------------------------------------
 Cartesian Forces:  Max     0.001295468 RMS     0.001021429
 Leave Link  716 at Tue Aug 16 11:26:23 2022, MaxMem=  2147483648 cpu:               0.9 elap:               0.1
 (Enter /sw/linux/gaussian/g16/g16/l103.exe)

 GradGradGradGradGradGradGradGradGradGradGradGradGradGradGradGradGradGrad
 Berny optimization.
 Using GEDIIS/GDIIS optimizer.
 Red2BG is reusing G-inverse.
 Internal  Forces:  Max     0.001769168 RMS     0.001769168
 Search for a local minimum.
 Step number   2 out of a maximum of   20
 All quantities printed in internal units (Hartrees-Bohrs-Radians)
 RMS Force = .17692D-02 SwitMx=.10000D-02 MixMth= 1
 Mixed Optimization -- RFO/linear search
 Update second derivatives using D2CorX and points    1    2
 DE= -1.53D-04 DEPred=-1.43D-04 R= 1.07D+00
 TightC=F SS=  1.41D+00  RLast= 1.26D-02 DXNew= 5.0454D-01 3.7938D-02
 Trust test= 1.07D+00 RLast= 1.26D-02 DXMaxT set to 3.00D-01
 The second derivative matrix:
                          R1
           R1           1.64564
 ITU=  1  0
 Use linear search instead of GDIIS.
     Eigenvalues ---    1.64564
 RFO step:  Lambda= 0.00000000D+00 EMin= 1.64564490D+00
 Quartic linear search produced a step of  0.08726.
 Iteration  1 RMS(Cart)=  0.00078032 RMS(Int)=  0.00000000
 Iteration  2 RMS(Cart)=  0.00000000 RMS(Int)=  0.00000000
 ITry= 1 IFail=0 DXMaxC= 4.04D-04 DCOld= 1.00D+10 DXMaxT= 3.00D-01 DXLimC= 3.00D+00 Rises=F
 Variable       Old X    -DE/DX   Delta X   Delta X   Delta X     New X
                                 (Linear)    (Quad)   (Total)
    R1        2.08798   0.00177   0.00110   0.00000   0.00110   2.08909
         Item               Value     Threshold  Converged?
 Maximum Force            0.001769     0.000450     NO 
 RMS     Force            0.001769     0.000300     NO 
 Maximum Displacement     0.000404     0.001800     YES
 RMS     Displacement     0.000780     0.001200     YES
 Predicted change in Energy=-9.503134D-07
 Lowest energy point so far.  Saving SCF results.
 GradGradGradGradGradGradGradGradGradGradGradGradGradGradGradGradGradGrad

 Leave Link  103 at Tue Aug 16 11:26:23 2022, MaxMem=  2147483648 cpu:               1.5 elap:               0.1
 (Enter /sw/linux/gaussian/g16/g16/l202.exe)
                          Input orientation:                          
 ---------------------------------------------------------------------
 Center     Atomic      Atomic             Coordinates (Angstroms)
 Number     Number       Type             X           Y           Z
 ---------------------------------------------------------------------
      1          7           0       -0.789043    0.320748   -0.722079
      2          7           0        0.020474    0.225454    0.024731
 ---------------------------------------------------------------------
 Symmetry turned off by external request.
 Stoichiometry    N2
 Framework group  D*H[C*(N.N)]
 Deg. of freedom     1
 Full point group                 D*H     NOp   8
 Rotational constants (GHZ):           0.0000000          59.0620994          59.0620994
 Leave Link  202 at Tue Aug 16 11:26:23 2022, MaxMem=  2147483648 cpu:               1.7 elap:               0.1
 (Enter /sw/linux/gaussian/g16/g16/l301.exe)
 Standard basis: 6-31G(d,p) (6D, 7F)
 Ernie: Thresh=  0.10000D-02 Tol=  0.10000D-05 Strict=F.
    30 basis functions,    56 primitive gaussians,    30 cartesian basis functions
     7 alpha electrons        7 beta electrons
       nuclear repulsion energy        23.4552327757 Hartrees.
 IExCor=  402 DFT=T Ex+Corr=B3LYP ExCW=0 ScaHFX=  0.200000
 ScaDFX=  0.800000  0.720000  1.000000  0.810000 ScalE2=  1.000000  1.000000
 IRadAn=      5 IRanWt=     -1 IRanGd=            0 ICorTp=0 IEmpDi=141
 NAtoms=    2 NActive=    2 NUniq=    2 SFac= 1.00D+00 NAtFMM=   60 NAOKFM=F Big=F
 Integral buffers will be    131072 words long.
 Raffenetti 2 integral format.
 Two-electron integral symmetry is turned off.
 R6Disp:  Grimme-D3(BJ) Dispersion energy=       -0.0007525457 Hartrees.
 Nuclear repulsion after empirical dispersion term =       23.4544802300 Hartrees.
 Leave Link  301 at Tue Aug 16 11:26:23 2022, MaxMem=  2147483648 cpu:               2.5 elap:               0.2
 (Enter /sw/linux/gaussian/g16/g16/l302.exe)
 NPDir=0 NMtPBC=     1 NCelOv=     1 NCel=       1 NClECP=     1 NCelD=      1
         NCelK=      1 NCelE2=     1 NClLst=     1 CellRange=     0.0.
 One-electron integrals computed using PRISM.
 NBasis=    30 RedAO= T EigKep=  4.49D-03  NBF=    30
 NBsUse=    30 1.00D-06 EigRej= -1.00D+00 NBFU=    30
 Precomputing XC quadrature grid using
 IXCGrd= 4 IRadAn=           5 IRanWt=          -1 IRanGd=           0 AccXCQ= 0.00D+00.
 Generated NRdTot=       0 NPtTot=           0 NUsed=           0 NTot=          32
 NSgBfM=    30    30    30    30    30 MxSgAt=     2 MxSgA2=     2.
 Leave Link  302 at Tue Aug 16 11:26:23 2022, MaxMem=  2147483648 cpu:               2.5 elap:               0.1
 (Enter /sw/linux/gaussian/g16/g16/l303.exe)
 DipDrv:  MaxL=1.
 Leave Link  303 at Tue Aug 16 11:26:24 2022, MaxMem=  2147483648 cpu:               1.8 elap:               0.1
 (Enter /sw/linux/gaussian/g16/g16/l401.exe)
 Initial guess from the checkpoint file:  "/usr/scratch/link/Gau-1033.chk"
 B after Tr=     0.000000    0.000000    0.000000
         Rot=    1.000000    0.000000    0.000000    0.000000 Ang=   0.00 deg.
 Guess basis will be translated and rotated to current coordinates.
 JPrj=2 DoOrth=T DoCkMO=T.
 Leave Link  401 at Tue Aug 16 11:26:24 2022, MaxMem=  2147483648 cpu:               3.3 elap:               0.2
 (Enter /sw/linux/gaussian/g16/g16/l502.exe)
 Keep R1 ints in memory in canonical form, NReq=17380169.
 FoFCou: FMM=F IPFlag=           0 FMFlag=           0 FMFlg1=           0
         NFxFlg=           0 DoJE=F BraDBF=F KetDBF=F FulRan=T
         wScrn=  0.000000 ICntrl=       600 IOpCl=  0 I1Cent=           0 NGrid=           0
         NMat0=    1 NMatS0=    465 NMatT0=    0 NMatD0=    1 NMtDS0=    0 NMtDT0=    0
 Symmetry not used in FoFCou.
 Two-electron integral symmetry not used.
 Closed shell SCF:
 Using DIIS extrapolation, IDIIS=  1040.
 NGot=  2147483648 LenX=  2147372537 LenY=  2147371196
 Requested convergence on RMS density matrix=1.00D-08 within 128 cycles.
 Requested convergence on MAX density matrix=1.00D-06.
 Requested convergence on             energy=1.00D-06.
 No special actions if energy rises.

 Cycle   1  Pass 1  IDiag  1:
 E= -109.524881002498    
 DIIS: error= 7.76D-05 at cycle   1 NSaved=   1.
 NSaved= 1 IEnMin= 1 EnMin= -109.524881002498     IErMin= 1 ErrMin= 7.76D-05
 ErrMax= 7.76D-05  0.00D+00 EMaxC= 1.00D-01 BMatC= 1.98D-07 BMatP= 1.98D-07
 IDIUse=1 WtCom= 1.00D+00 WtEn= 0.00D+00
 Coeff-Com:  0.100D+01
 Coeff:      0.100D+01
 Gap=     2.751 Goal=   None    Shift=    0.000
 RMSDP=1.84D-05 MaxDP=1.15D-04              OVMax= 1.79D-04

 Cycle   2  Pass 1  IDiag  1:
 E= -109.524881211191     Delta-E=       -0.000000208693 Rises=F Damp=F
 DIIS: error= 3.02D-05 at cycle   2 NSaved=   2.
 NSaved= 2 IEnMin= 2 EnMin= -109.524881211191     IErMin= 2 ErrMin= 3.02D-05
 ErrMax= 3.02D-05  0.00D+00 EMaxC= 1.00D-01 BMatC= 3.37D-08 BMatP= 1.98D-07
 IDIUse=1 WtCom= 1.00D+00 WtEn= 0.00D+00
 Coeff-Com:  0.240D+00 0.760D+00
 Coeff:      0.240D+00 0.760D+00
 Gap=     0.403 Goal=   None    Shift=    0.000
 RMSDP=7.43D-06 MaxDP=5.16D-05 DE=-2.09D-07 OVMax= 5.48D-05

 Cycle   3  Pass 1  IDiag  1:
 E= -109.524881239504     Delta-E=       -0.000000028313 Rises=F Damp=F
 DIIS: error= 8.92D-06 at cycle   3 NSaved=   3.
 NSaved= 3 IEnMin= 3 EnMin= -109.524881239504     IErMin= 3 ErrMin= 8.92D-06
 ErrMax= 8.92D-06  0.00D+00 EMaxC= 1.00D-01 BMatC= 2.02D-09 BMatP= 3.37D-08
 IDIUse=1 WtCom= 1.00D+00 WtEn= 0.00D+00
 Coeff-Com: -0.164D-01 0.179D+00 0.838D+00
 Coeff:     -0.164D-01 0.179D+00 0.838D+00
 Gap=     0.403 Goal=   None    Shift=    0.000
 RMSDP=1.39D-06 MaxDP=8.31D-06 DE=-2.83D-08 OVMax= 1.32D-05

 Cycle   4  Pass 1  IDiag  1:
 E= -109.524881241432     Delta-E=       -0.000000001928 Rises=F Damp=F
 DIIS: error= 2.30D-07 at cycle   4 NSaved=   4.
 NSaved= 4 IEnMin= 4 EnMin= -109.524881241432     IErMin= 4 ErrMin= 2.30D-07
 ErrMax= 2.30D-07  0.00D+00 EMaxC= 1.00D-01 BMatC= 1.38D-12 BMatP= 2.02D-09
 IDIUse=1 WtCom= 1.00D+00 WtEn= 0.00D+00
 Coeff-Com: -0.155D-02 0.439D-02 0.446D-01 0.953D+00
 Coeff:     -0.155D-02 0.439D-02 0.446D-01 0.953D+00
 Gap=     0.403 Goal=   None    Shift=    0.000
 RMSDP=4.44D-08 MaxDP=3.95D-07 DE=-1.93D-09 OVMax= 3.73D-07

 Cycle   5  Pass 1  IDiag  1:
 E= -109.524881241433     Delta-E=       -0.000000000001 Rises=F Damp=F
 DIIS: error= 3.47D-08 at cycle   5 NSaved=   5.
 NSaved= 5 IEnMin= 5 EnMin= -109.524881241433     IErMin= 5 ErrMin= 3.47D-08
 ErrMax= 3.47D-08  0.00D+00 EMaxC= 1.00D-01 BMatC= 3.35D-14 BMatP= 1.38D-12
 IDIUse=1 WtCom= 1.00D+00 WtEn= 0.00D+00
 Coeff-Com: -0.393D-04-0.126D-02-0.149D-02 0.172D+00 0.831D+00
 Coeff:     -0.393D-04-0.126D-02-0.149D-02 0.172D+00 0.831D+00
 Gap=     0.403 Goal=   None    Shift=    0.000
 RMSDP=6.91D-09 MaxDP=9.83D-08 DE=-1.28D-12 OVMax= 4.77D-08

 SCF Done:  E(RB3LYP) =  -109.524881241     A.U. after    5 cycles
            NFock=  5  Conv=0.69D-08     -V/T= 2.0097
 KE= 1.084740775769D+02 PE=-3.026347151115D+02 EE= 6.118127606315D+01
 Leave Link  502 at Tue Aug 16 11:26:24 2022, MaxMem=  2147483648 cpu:               4.7 elap:               0.3
 (Enter /sw/linux/gaussian/g16/g16/l701.exe)
 ... and contract with generalized density number  0.
 Compute integral first derivatives.
 R6Disp: Adding Grimme-D3(BJ) dispersion energy 1st derivatives to the gradient.
 Leave Link  701 at Tue Aug 16 11:26:24 2022, MaxMem=  2147483648 cpu:               2.6 elap:               0.2
 (Enter /sw/linux/gaussian/g16/g16/l702.exe)
 L702 exits ... SP integral derivatives will be done elsewhere.
 Leave Link  702 at Tue Aug 16 11:26:24 2022, MaxMem=  2147483648 cpu:               1.0 elap:               0.1
 (Enter /sw/linux/gaussian/g16/g16/l703.exe)
 Integral derivatives from FoFJK, PRISM(SPDF).
 Compute integral first derivatives, UseDBF=F ICtDFT=           0.
 Calling FoFJK, ICntrl=      2127 FMM=F ISym2X=0 I1Cent= 0 IOpClX= 0 NMat=1 NMatS=1 NMatT=0.
 FoFJK:  IHMeth= 1 ICntrl=    2127 DoSepK=F KAlg= 0 I1Cent=           0 FoldK=F
 IRaf=         0 NMat=       1 IRICut=       1 DoRegI=T DoRafI=F ISym2E= 0 IDoP0=0 IntGTp=1.
 FoFCou: FMM=F IPFlag=           0 FMFlag=      100000 FMFlg1=         800
         NFxFlg=           0 DoJE=F BraDBF=F KetDBF=F FulRan=T
         wScrn=  0.000000 ICntrl=      2127 IOpCl=  0 I1Cent=           0 NGrid=           0
         NMat0=    1 NMatS0=      1 NMatT0=    0 NMatD0=    1 NMtDS0=    0 NMtDT0=    0
 Symmetry not used in FoFCou.
 Leave Link  703 at Tue Aug 16 11:26:25 2022, MaxMem=  2147483648 cpu:               4.0 elap:               0.2
 (Enter /sw/linux/gaussian/g16/g16/l716.exe)
 Dipole        =-2.26338598D-09 2.66437095D-10-2.08807110D-09
 -------------------------------------------------------------------
 Center     Atomic                   Forces (Hartrees/Bohr)
 Number     Number              X              Y              Z
 -------------------------------------------------------------------
      1        7           0.000000126    0.000000015    0.000000072
      2        7          -0.000000126   -0.000000015   -0.000000072
 -------------------------------------------------------------------
 Cartesian Forces:  Max     0.000000126 RMS     0.000000084
 Leave Link  716 at Tue Aug 16 11:26:25 2022, MaxMem=  2147483648 cpu:               1.5 elap:               0.1
 (Enter /sw/linux/gaussian/g16/g16/l103.exe)

 GradGradGradGradGradGradGradGradGradGradGradGradGradGradGradGradGradGrad
 Berny optimization.
 Using GEDIIS/GDIIS optimizer.
 Red2BG is reusing G-inverse.
 Internal  Forces:  Max     0.000000140 RMS     0.000000140
 Search for a local minimum.
 Step number   3 out of a maximum of   20
 All quantities printed in internal units (Hartrees-Bohrs-Radians)
 RMS Force = .13961D-06 SwitMx=.10000D-02 MixMth= 2
 Mixed Optimization -- En-DIIS/RFO-DIIS
 Update second derivatives using D2CorX and points    3
 DE= -9.75D-07 DEPred=-9.50D-07 R= 1.03D+00
 Trust test= 1.03D+00 RLast= 1.10D-03 DXMaxT set to 3.00D-01
 The second derivative matrix:
                          R1
           R1           1.64564
 ITU=  0  1
 Use linear search instead of GDIIS.
     Eigenvalues ---    1.64564
 RFO step:  Lambda= 0.00000000D+00 EMin= 1.64564490D+00
 Quartic linear search produced a step of -0.00008.
 Iteration  1 RMS(Cart)=  0.00000006 RMS(Int)=  0.00000000
 ITry= 1 IFail=0 DXMaxC= 3.19D-08 DCOld= 1.00D+10 DXMaxT= 3.00D-01 DXLimC= 3.00D+00 Rises=F
 Variable       Old X    -DE/DX   Delta X   Delta X   Delta X     New X
                                 (Linear)    (Quad)   (Total)
    R1        2.08909   0.00000   0.00000   0.00000   0.00000   2.08909
         Item               Value     Threshold  Converged?
 Maximum Force            0.000000     0.000450     YES
 RMS     Force            0.000000     0.000300     YES
 Maximum Displacement     0.000000     0.001800     YES
 RMS     Displacement     0.000000     0.001200     YES
 Predicted change in Energy=-5.917219D-15
 Optimization completed.
    -- Stationary point found.
                           ----------------------------
                           !   Optimized Parameters   !
                           ! (Angstroms and Degrees)  !
 --------------------------                            --------------------------
 ! Name  Definition              Value          Derivative Info.                !
 --------------------------------------------------------------------------------
 ! R1    R(1,2)                  1.1055         -DE/DX =    0.0                 !
 --------------------------------------------------------------------------------
 Lowest energy point so far.  Saving SCF results.
 Largest change from initial coordinates is atom    1       0.004 Angstoms.
 GradGradGradGradGradGradGradGradGradGradGradGradGradGradGradGradGradGrad

 Leave Link  103 at Tue Aug 16 11:26:25 2022, MaxMem=  2147483648 cpu:               0.8 elap:               0.1
 (Enter /sw/linux/gaussian/g16/g16/l202.exe)
                          Input orientation:                          
 ---------------------------------------------------------------------
 Center     Atomic      Atomic             Coordinates (Angstroms)
 Number     Number       Type             X           Y           Z
 ---------------------------------------------------------------------
      1          7           0       -0.789043    0.320748   -0.722079
      2          7           0        0.020474    0.225454    0.024731
 ---------------------------------------------------------------------
 Symmetry turned off by external request.
 Stoichiometry    N2
 Framework group  D*H[C*(N.N)]
 Deg. of freedom     1
 Full point group                 D*H     NOp   8
 Rotational constants (GHZ):           0.0000000          59.0620994          59.0620994
 Leave Link  202 at Tue Aug 16 11:26:25 2022, MaxMem=  2147483648 cpu:               2.2 elap:               0.1
 (Enter /sw/linux/gaussian/g16/g16/l601.exe)
 Copying SCF densities to generalized density rwf, IOpCl= 0 IROHF=0.

 **********************************************************************

            Population analysis using the SCF Density.

 **********************************************************************

 Alpha  occ. eigenvalues --  -14.44676 -14.44512  -1.12384  -0.55342  -0.46240
 Alpha  occ. eigenvalues --   -0.46240  -0.42688
 Alpha virt. eigenvalues --   -0.02412  -0.02412   0.41366   0.59105   0.60590
 Alpha virt. eigenvalues --    0.60590   0.64005   0.75115   0.75115   0.78521
 Alpha virt. eigenvalues --    1.23891   1.44991   1.44991   1.54800   1.54800
 Alpha virt. eigenvalues --    1.93901   1.93901   2.40434   2.59370   2.59370
 Alpha virt. eigenvalues --    2.81674   3.28940   3.58818
          Condensed to atoms (all electrons):
               1          2
     1  N    6.450381   0.549619
     2  N    0.549619   6.450381
 Mulliken charges:
               1
     1  N    0.000000
     2  N    0.000000
 Sum of Mulliken charges =   0.00000
 Mulliken charges with hydrogens summed into heavy atoms:
               1
     1  N    0.000000
     2  N    0.000000
 Electronic spatial extent (au):  <R**2>=             56.0367
 Charge=              0.0000 electrons
 Dipole moment (field-independent basis, Debye):
    X=              0.0000    Y=              0.0000    Z=              0.0000  Tot=              0.0000
 Quadrupole moment (field-independent basis, Debye-Ang):
   XX=            -10.8844   YY=            -10.0605   ZZ=            -10.7600
   XY=              0.0983   XZ=             -0.7708   YZ=              0.0907
 Traceless Quadrupole moment (field-independent basis, Debye-Ang):
   XX=             -0.3161   YY=              0.5078   ZZ=             -0.1917
   XY=              0.0983   XZ=             -0.7708   YZ=              0.0907
 Octapole moment (field-independent basis, Debye-Ang**2):
  XXX=             12.5481  YYY=             -8.2426  ZZZ=             11.2552  XYY=              3.9198
  XXY=             -3.0481  XXZ=              4.3875  XZZ=              4.6724  YZZ=             -3.0018
  YYZ=              3.5574  XYZ=             -0.2797
 Hexadecapole moment (field-independent basis, Debye-Ang**3):
 XXXX=            -29.2102 YYYY=            -12.6600 ZZZZ=            -25.6146 XXXY=              4.1875
 XXXZ=            -10.3355 YYYX=              3.8344 YYYZ=              3.4892 ZZZX=            -10.1398
 ZZZY=              3.7583 XXYY=             -6.8645 XXZZ=             -9.8976 YYZZ=             -6.3131
 XXYZ=              1.5034 YYXZ=             -3.1331 ZZXY=              1.5892
 N-N= 2.345448022999D+01 E-N=-3.026347149680D+02  KE= 1.084740775769D+02
 No NMR shielding tensors so no spin-rotation constants.
 Leave Link  601 at Tue Aug 16 11:26:25 2022, MaxMem=  2147483648 cpu:               3.8 elap:               0.2
 (Enter /sw/linux/gaussian/g16/g16/l9999.exe)
 1\1\GINC-THINC350\FOpt\RB3LYP\6-31G(d,p)\N2\LINK\16-Aug-2022\0\\#P opt
  freq b3lyp/6-31G(d,p) nosymm empiricaldispersion=GD3BJ\\TITLE\\0,1\N,
 -0.7890431258,0.3207483945,-0.7220790244\N,0.0204735515,0.2254544126,0
 .024730754\\Version=ES64L-G16RevB.01\HF=-109.5248812\RMSD=6.907e-09\RM
 SF=8.414e-08\Dipole=0.,0.,0.\Quadrupole=-0.2350173,0.3775299,-0.142512
 5,0.0731205,-0.5730388,0.0674564\PG=D*H [C*(N1.N1)]\\@


 FESTINA LENTE!
     - IMPERATOR AUGUSTUS 
 Leave Link 9999 at Tue Aug 16 11:26:25 2022, MaxMem=  2147483648 cpu:               1.7 elap:               0.1
 Job cpu time:       0 days  0 hours  1 minutes 46.9 seconds.
 Elapsed time:       0 days  0 hours  0 minutes  7.0 seconds.
 File lengths (MBytes):  RWF=      6 Int=      0 D2E=      0 Chk=      1 Scr=      1
 Normal termination of Gaussian 16 at Tue Aug 16 11:26:25 2022.
 (Enter /sw/linux/gaussian/g16/g16/l1.exe)
 Link1:  Proceeding to internal job step number  2.
 ----------------------------------------------------------------------
 #P Geom=AllCheck Guess=TCheck SCRF=Check GenChk RB3LYP/6-31G(d,p) Freq
 ----------------------------------------------------------------------
 1/10=4,29=7,30=1,38=1,40=1/1,3;
 2/12=2,15=1,40=1/2;
 3/5=1,6=6,7=101,11=2,14=-4,25=1,30=1,70=2,71=2,74=-5,116=1,124=41,140=1/1,2,3;
 4/5=101/1;
 5/5=2,38=6,98=1/2;
 8/6=4,10=90,11=11/1;
 11/6=1,8=1,9=11,15=111,16=1,31=1/1,2,10;
 10/6=1,31=1/2;
 6/7=2,8=2,9=2,10=2,28=1/1;
 7/8=1,10=1,25=1,30=1/1,2,3,16;
 1/10=4,30=1/3;
 99//99;
 Leave Link    1 at Tue Aug 16 11:26:25 2022, MaxMem=  2147483648 cpu:               0.5 elap:               0.0
 (Enter /sw/linux/gaussian/g16/g16/l101.exe)
 Structure from the checkpoint file:  "/usr/scratch/link/Gau-1033.chk"
 -----
 TITLE
 -----
 Charge =  0 Multiplicity = 1
 Redundant internal coordinates found in file.  (old form).
 N,0,-0.7890431258,0.3207483945,-0.7220790244
 N,0,0.0204735515,0.2254544126,0.024730754
 Recover connectivity data from disk.
 ITRead=  0  0
 MicOpt= -1 -1
 NAtoms=      2 NQM=        2 NQMF=       0 NMMI=      0 NMMIF=      0
                NMic=       0 NMicF=      0.
                    Isotopes and Nuclear Properties:
 (Nuclear quadrupole moments (NQMom) in fm**2, nuclear magnetic moments (NMagM)
  in nuclear magnetons)

  Atom         1           2
 IAtWgt=          14          14
 AtmWgt=  14.0030740  14.0030740
 NucSpn=           2           2
 AtZEff=   4.5500000   4.5500000
 NQMom=    2.0440000   2.0440000
 NMagM=    0.4037610   0.4037610
 AtZNuc=   7.0000000   7.0000000
 Leave Link  101 at Tue Aug 16 11:26:26 2022, MaxMem=  2147483648 cpu:               7.4 elap:               0.4
 (Enter /sw/linux/gaussian/g16/g16/l103.exe)

 GradGradGradGradGradGradGradGradGradGradGradGradGradGradGradGradGradGrad
 Berny optimization.
 Initialization pass.
                           ----------------------------
                           !    Initial Parameters    !
                           ! (Angstroms and Degrees)  !
 --------------------------                            --------------------------
 ! Name  Definition              Value          Derivative Info.                !
 --------------------------------------------------------------------------------
 ! R1    R(1,2)                  1.1055         calculate D2E/DX2 analytically  !
 --------------------------------------------------------------------------------
 Trust Radius=3.00D-01 FncErr=1.00D-07 GrdErr=1.00D-07 EigMax=2.50D+02 EigMin=1.00D-04
 Number of steps in this run=      2 maximum allowed number of steps=      2.
 GradGradGradGradGradGradGradGradGradGradGradGradGradGradGradGradGradGrad

 Leave Link  103 at Tue Aug 16 11:26:26 2022, MaxMem=  2147483648 cpu:               1.7 elap:               0.1
 (Enter /sw/linux/gaussian/g16/g16/l202.exe)
                          Input orientation:                          
 ---------------------------------------------------------------------
 Center     Atomic      Atomic             Coordinates (Angstroms)
 Number     Number       Type             X           Y           Z
 ---------------------------------------------------------------------
      1          7           0       -0.789043    0.320748   -0.722079
      2          7           0        0.020474    0.225454    0.024731
 ---------------------------------------------------------------------
 Symmetry turned off by external request.
 Stoichiometry    N2
 Framework group  D*H[C*(N.N)]
 Deg. of freedom     1
 Full point group                 D*H     NOp   8
 Rotational constants (GHZ):           0.0000000          59.0620994          59.0620994
 Leave Link  202 at Tue Aug 16 11:26:26 2022, MaxMem=  2147483648 cpu:               1.6 elap:               0.1
 (Enter /sw/linux/gaussian/g16/g16/l301.exe)
 Standard basis: 6-31G(d,p) (6D, 7F)
 Ernie: Thresh=  0.10000D-02 Tol=  0.10000D-05 Strict=F.
    30 basis functions,    56 primitive gaussians,    30 cartesian basis functions
     7 alpha electrons        7 beta electrons
       nuclear repulsion energy        23.4552327757 Hartrees.
 IExCor=  402 DFT=T Ex+Corr=B3LYP ExCW=0 ScaHFX=  0.200000
 ScaDFX=  0.800000  0.720000  1.000000  0.810000 ScalE2=  1.000000  1.000000
 IRadAn=      5 IRanWt=     -1 IRanGd=            0 ICorTp=0 IEmpDi=141
 NAtoms=    2 NActive=    2 NUniq=    2 SFac= 1.00D+00 NAtFMM=   60 NAOKFM=F Big=F
 Integral buffers will be    131072 words long.
 Raffenetti 2 integral format.
 Two-electron integral symmetry is turned off.
 R6Disp:  Grimme-D3(BJ) Dispersion energy=       -0.0007525457 Hartrees.
 Nuclear repulsion after empirical dispersion term =       23.4544802300 Hartrees.
 Leave Link  301 at Tue Aug 16 11:26:26 2022, MaxMem=  2147483648 cpu:               2.1 elap:               0.1
 (Enter /sw/linux/gaussian/g16/g16/l302.exe)
 NPDir=0 NMtPBC=     1 NCelOv=     1 NCel=       1 NClECP=     1 NCelD=      1
         NCelK=      1 NCelE2=     1 NClLst=     1 CellRange=     0.0.
 One-electron integrals computed using PRISM.
 NBasis=    30 RedAO= T EigKep=  4.49D-03  NBF=    30
 NBsUse=    30 1.00D-06 EigRej= -1.00D+00 NBFU=    30
 Precomputing XC quadrature grid using
 IXCGrd= 4 IRadAn=           5 IRanWt=          -1 IRanGd=           0 AccXCQ= 0.00D+00.
 Generated NRdTot=       0 NPtTot=           0 NUsed=           0 NTot=          32
 NSgBfM=    30    30    30    30    30 MxSgAt=     2 MxSgA2=     2.
 Leave Link  302 at Tue Aug 16 11:26:27 2022, MaxMem=  2147483648 cpu:               3.0 elap:               0.2
 (Enter /sw/linux/gaussian/g16/g16/l303.exe)
 DipDrv:  MaxL=1.
 Leave Link  303 at Tue Aug 16 11:26:27 2022, MaxMem=  2147483648 cpu:               1.2 elap:               0.1
 (Enter /sw/linux/gaussian/g16/g16/l401.exe)
 Initial guess from the checkpoint file:  "/usr/scratch/link/Gau-1033.chk"
 B after Tr=     0.000000    0.000000    0.000000
         Rot=    1.000000    0.000000    0.000000    0.000000 Ang=   0.00 deg.
 Guess basis will be translated and rotated to current coordinates.
 JPrj=2 DoOrth=T DoCkMO=T.
 Leave Link  401 at Tue Aug 16 11:26:27 2022, MaxMem=  2147483648 cpu:               3.1 elap:               0.2
 (Enter /sw/linux/gaussian/g16/g16/l502.exe)
 Keep R1 ints in memory in canonical form, NReq=17380169.
 FoFCou: FMM=F IPFlag=           0 FMFlag=           0 FMFlg1=           0
         NFxFlg=           0 DoJE=F BraDBF=F KetDBF=F FulRan=T
         wScrn=  0.000000 ICntrl=       600 IOpCl=  0 I1Cent=           0 NGrid=           0
         NMat0=    1 NMatS0=    465 NMatT0=    0 NMatD0=    1 NMtDS0=    0 NMtDT0=    0
 Symmetry not used in FoFCou.
 Two-electron integral symmetry not used.
 Closed shell SCF:
 Using DIIS extrapolation, IDIIS=  1040.
 NGot=  2147483648 LenX=  2147372537 LenY=  2147371196
 Requested convergence on RMS density matrix=1.00D-08 within 128 cycles.
 Requested convergence on MAX density matrix=1.00D-06.
 Requested convergence on             energy=1.00D-06.
 No special actions if energy rises.

 Cycle   1  Pass 1  IDiag  1:
 E= -109.524881241433    
 DIIS: error= 8.62D-10 at cycle   1 NSaved=   1.
 NSaved= 1 IEnMin= 1 EnMin= -109.524881241433     IErMin= 1 ErrMin= 8.62D-10
 ErrMax= 8.62D-10  0.00D+00 EMaxC= 1.00D-01 BMatC= 2.79D-17 BMatP= 2.79D-17
 IDIUse=1 WtCom= 1.00D+00 WtEn= 0.00D+00
 Coeff-Com:  0.100D+01
 Coeff:      0.100D+01
 Gap=     0.403 Goal=   None    Shift=    0.000
 RMSDP=2.42D-10 MaxDP=2.14D-09              OVMax= 1.72D-09

 SCF Done:  E(RB3LYP) =  -109.524881241     A.U. after    1 cycles
            NFock=  1  Conv=0.24D-09     -V/T= 2.0097
 KE= 1.084740776139D+02 PE=-3.026347150050D+02 EE= 6.118127591967D+01
 Leave Link  502 at Tue Aug 16 11:26:27 2022, MaxMem=  2147483648 cpu:               3.1 elap:               0.2
 (Enter /sw/linux/gaussian/g16/g16/l801.exe)
 DoSCS=F DFT=T ScalE2(SS,OS)=  1.000000  1.000000
 Range of M.O.s used for correlation:     1    30
 NBasis=    30 NAE=     7 NBE=     7 NFC=     0 NFV=     0
 NROrb=     30 NOA=     7 NOB=     7 NVA=    23 NVB=    23
 Leave Link  801 at Tue Aug 16 11:26:27 2022, MaxMem=  2147483648 cpu:               1.9 elap:               0.1
 (Enter /sw/linux/gaussian/g16/g16/l1101.exe)
 Using compressed storage, NAtomX=     2.
 Will process      3 centers per pass.
 R6Disp: Adding Grimme-D3(BJ) dispersion energy 1st derivatives to the gradient.
 Leave Link 1101 at Tue Aug 16 11:26:27 2022, MaxMem=  2147483648 cpu:               3.0 elap:               0.2
 (Enter /sw/linux/gaussian/g16/g16/l1102.exe)
 Symmetrizing basis deriv contribution to polar:
 IMax=3 JMax=2 DiffMx= 0.00D+00
 Leave Link 1102 at Tue Aug 16 11:26:28 2022, MaxMem=  2147483648 cpu:               2.3 elap:               0.2
 (Enter /sw/linux/gaussian/g16/g16/l1110.exe)
 Forming Gx(P) for the SCF density, NAtomX=     2.
 Integral derivatives from FoFJK, PRISM(SPDF).
 Do as many integral derivatives as possible in FoFJK.
 G2DrvN: MDV=    2147483364.
 G2DrvN: will do     3 centers at a time, making    1 passes.
 Calling FoFCou, ICntrl=  3107 FMM=F I1Cent=   0 AccDes= 0.00D+00.
 FoFJK:  IHMeth= 1 ICntrl=    3107 DoSepK=F KAlg= 0 I1Cent=           0 FoldK=F
 IRaf=         0 NMat=       1 IRICut=       1 DoRegI=T DoRafI=F ISym2E= 0 IDoP0=0 IntGTp=1.
 FoFCou: FMM=F IPFlag=           0 FMFlag=      100000 FMFlg1=           0
         NFxFlg=           0 DoJE=F BraDBF=F KetDBF=F FulRan=T
         wScrn=  0.000000 ICntrl=      3107 IOpCl=  0 I1Cent=           0 NGrid=           0
         NMat0=    1 NMatS0=      1 NMatT0=    0 NMatD0=    1 NMtDS0=    0 NMtDT0=    0
 Symmetry not used in FoFCou.
 End of G2Drv F.D. properties file   721 does not exist.
 End of G2Drv F.D. properties file   722 does not exist.
 End of G2Drv F.D. properties file   788 does not exist.
 Leave Link 1110 at Tue Aug 16 11:26:28 2022, MaxMem=  2147483648 cpu:               4.5 elap:               0.3
 (Enter /sw/linux/gaussian/g16/g16/l1002.exe)
 Minotr:  Closed shell wavefunction.
          IDoAtm=11
          Direct CPHF calculation.
          Differentiating once with respect to electric field.
                with respect to dipole field.
          Differentiating once with respect to nuclear coordinates.
          Requested convergence is 1.0D-08 RMS, and 1.0D-07 maximum.
          Secondary convergence is 1.0D-12 RMS, and 1.0D-12 maximum.
          NewPWx=T KeepS1=F KeepF1=F KeepIn=T MapXYZ=F SortEE=F KeepMc=T.
          569 words used for storage of precomputed grid.
 Keep R1 ints in memory in canonical form, NReq=17312022.
 FoFCou: FMM=F IPFlag=           0 FMFlag=           0 FMFlg1=           0
         NFxFlg=           0 DoJE=F BraDBF=F KetDBF=F FulRan=T
         wScrn=  0.000000 ICntrl=       600 IOpCl=  0 I1Cent=           0 NGrid=           0
         NMat0=    1 NMatS0=    465 NMatT0=    0 NMatD0=    1 NMtDS0=    0 NMtDT0=    0
 Symmetry not used in FoFCou.
 Two-electron integral symmetry not used.
          MDV=    2147483648 using IRadAn=       1.
          Solving linear equations simultaneously, MaxMat=       0.
          There are     9 degrees of freedom in the 1st order CPHF.  IDoFFX=6 NUNeed=     3.
      6 vectors produced by pass  0 Test12= 1.79D-15 1.11D-08 XBig12= 8.72D+00 1.82D+00.
 AX will form     6 AO Fock derivatives at one time.
      6 vectors produced by pass  1 Test12= 1.79D-15 1.11D-08 XBig12= 4.84D+00 1.20D+00.
      6 vectors produced by pass  2 Test12= 1.79D-15 1.11D-08 XBig12= 2.05D-02 5.78D-02.
      6 vectors produced by pass  3 Test12= 1.79D-15 1.11D-08 XBig12= 8.54D-05 3.91D-03.
      6 vectors produced by pass  4 Test12= 1.79D-15 1.11D-08 XBig12= 1.37D-07 1.49D-04.
      6 vectors produced by pass  5 Test12= 1.79D-15 1.11D-08 XBig12= 9.89D-11 4.83D-06.
      1 vectors produced by pass  6 Test12= 1.79D-15 1.11D-08 XBig12= 2.88D-13 2.29D-07.
 InvSVY:  IOpt=1 It=  1 EMax= 4.44D-16
 Solved reduced A of dimension    37 with     6 vectors.
 FullF1:  Do perturbations      1 to       3.
 Isotropic polarizability for W=    0.000000        8.54 Bohr**3.
 End of Minotr F.D. properties file   721 does not exist.
 End of Minotr F.D. properties file   722 does not exist.
 End of Minotr F.D. properties file   788 does not exist.
 Leave Link 1002 at Tue Aug 16 11:26:28 2022, MaxMem=  2147483648 cpu:               4.9 elap:               0.3
 (Enter /sw/linux/gaussian/g16/g16/l601.exe)
 Copying SCF densities to generalized density rwf, IOpCl= 0 IROHF=0.

 **********************************************************************

            Population analysis using the SCF Density.

 **********************************************************************

 Alpha  occ. eigenvalues --  -14.44676 -14.44512  -1.12384  -0.55342  -0.46240
 Alpha  occ. eigenvalues --   -0.46240  -0.42688
 Alpha virt. eigenvalues --   -0.02412  -0.02412   0.41366   0.59105   0.60590
 Alpha virt. eigenvalues --    0.60590   0.64005   0.75115   0.75115   0.78521
 Alpha virt. eigenvalues --    1.23891   1.44991   1.44991   1.54800   1.54800
 Alpha virt. eigenvalues --    1.93901   1.93901   2.40434   2.59370   2.59370
 Alpha virt. eigenvalues --    2.81674   3.28940   3.58818
          Condensed to atoms (all electrons):
               1          2
     1  N    6.450381   0.549619
     2  N    0.549619   6.450381
 Mulliken charges:
               1
     1  N    0.000000
     2  N    0.000000
 Sum of Mulliken charges =   0.00000
 Mulliken charges with hydrogens summed into heavy atoms:
               1
     1  N    0.000000
     2  N    0.000000
 APT charges:
               1
     1  N    0.000000
     2  N    0.000000
 Sum of APT charges =   0.00000
 APT charges with hydrogens summed into heavy atoms:
               1
     1  N    0.000000
     2  N    0.000000
 Electronic spatial extent (au):  <R**2>=             56.0367
 Charge=              0.0000 electrons
 Dipole moment (field-independent basis, Debye):
    X=              0.0000    Y=              0.0000    Z=              0.0000  Tot=              0.0000
 Quadrupole moment (field-independent basis, Debye-Ang):
   XX=            -10.8844   YY=            -10.0605   ZZ=            -10.7600
   XY=              0.0983   XZ=             -0.7708   YZ=              0.0907
 Traceless Quadrupole moment (field-independent basis, Debye-Ang):
   XX=             -0.3161   YY=              0.5078   ZZ=             -0.1917
   XY=              0.0983   XZ=             -0.7708   YZ=              0.0907
 Octapole moment (field-independent basis, Debye-Ang**2):
  XXX=             12.5481  YYY=             -8.2426  ZZZ=             11.2552  XYY=              3.9198
  XXY=             -3.0481  XXZ=              4.3875  XZZ=              4.6724  YZZ=             -3.0018
  YYZ=              3.5574  XYZ=             -0.2797
 Hexadecapole moment (field-independent basis, Debye-Ang**3):
 XXXX=            -29.2102 YYYY=            -12.6600 ZZZZ=            -25.6146 XXXY=              4.1875
 XXXZ=            -10.3355 YYYX=              3.8344 YYYZ=              3.4892 ZZZX=            -10.1398
 ZZZY=              3.7583 XXYY=             -6.8645 XXZZ=             -9.8976 YYZZ=             -6.3131
 XXYZ=              1.5034 YYXZ=             -3.1331 ZZXY=              1.5892
 N-N= 2.345448022999D+01 E-N=-3.026347150335D+02  KE= 1.084740776139D+02
  Exact polarizability:   9.996  -0.454   6.191   3.560  -0.419   9.422
 Approx polarizability:  18.555  -1.196   8.540   9.370  -1.103  17.043
 No NMR shielding tensors so no spin-rotation constants.
 Leave Link  601 at Tue Aug 16 11:26:28 2022, MaxMem=  2147483648 cpu:               4.3 elap:               0.3
 (Enter /sw/linux/gaussian/g16/g16/l701.exe)
 ... and contract with generalized density number  0.
 Compute integral second derivatives.
 R6Disp: Adding Grimme-D3(BJ) dispersion energy 2nd derivatives to the Hessian.
 Leave Link  701 at Tue Aug 16 11:26:29 2022, MaxMem=  2147483648 cpu:               3.2 elap:               0.2
 (Enter /sw/linux/gaussian/g16/g16/l702.exe)
 L702 exits ... SP integral derivatives will be done elsewhere.
 Leave Link  702 at Tue Aug 16 11:26:29 2022, MaxMem=  2147483648 cpu:               1.9 elap:               0.1
 (Enter /sw/linux/gaussian/g16/g16/l703.exe)
 Integral derivatives from FoFJK, PRISM(SPDF).
 Compute integral second derivatives, UseDBF=F ICtDFT=           0.
 Calling FoFJK, ICntrl=    100127 FMM=F ISym2X=0 I1Cent= 0 IOpClX= 0 NMat=1 NMatS=1 NMatT=0.
 FoFJK:  IHMeth= 1 ICntrl=  100127 DoSepK=F KAlg= 0 I1Cent=           0 FoldK=F
 IRaf=         0 NMat=       1 IRICut=       1 DoRegI=T DoRafI=F ISym2E= 0 IDoP0=0 IntGTp=1.
 FoFCou: FMM=F IPFlag=           0 FMFlag=      100000 FMFlg1=         800
         NFxFlg=           0 DoJE=F BraDBF=F KetDBF=F FulRan=T
         wScrn=  0.000000 ICntrl=    100127 IOpCl=  0 I1Cent=           0 NGrid=           0
         NMat0=    1 NMatS0=      1 NMatT0=    0 NMatD0=    1 NMtDS0=    0 NMtDT0=    0
 Symmetry not used in FoFCou.
 Leave Link  703 at Tue Aug 16 11:26:29 2022, MaxMem=  2147483648 cpu:               8.8 elap:               0.5
 (Enter /sw/linux/gaussian/g16/g16/l716.exe)
 Dipole        = 5.99693450D-09-7.05942860D-10 5.53237456D-09
 Polarizability= 9.99638842D+00-4.54208596D-01 6.19136956D+00
                 3.55962653D+00-4.19027975D-01 9.42178893D+00
 Full mass-weighted force constant matrix:
 Low frequencies ---   -0.0023   -0.0022   -0.0018    5.1048    6.0102 2457.3116
 Diagonal vibrational polarizability:
        0.0000000       0.0000000       0.0000000
 Harmonic frequencies (cm**-1), IR intensities (KM/Mole), Raman scattering
 activities (A**4/AMU), depolarization ratios for plane and unpolarized
 incident light, reduced masses (AMU), force constants (mDyne/A),
 and normal coordinates:
                      1
                      A
 Frequencies --   2457.3116
 Red. masses --     14.0031
 Frc consts  --     49.8189
 IR Inten    --      0.0000
  Atom  AN      X      Y      Z
     1   7     0.52  -0.06   0.48
     2   7    -0.52   0.06  -0.48

 -------------------
 - Thermochemistry -
 -------------------
 Temperature   298.150 Kelvin.  Pressure   1.00000 Atm.
 Atom     1 has atomic number  7 and mass  14.00307
 Atom     2 has atomic number  7 and mass  14.00307
 Molecular mass:    28.00615 amu.
 Principal axes and moments of inertia in atomic units:
                           1         2         3
     Eigenvalues --     0.00000  30.55667  30.55667
           X            0.73227   0.62139  -0.27869
           Y           -0.08620   0.49050   0.86717
           Z            0.67554  -0.61097   0.41274
 This molecule is a prolate symmetric top.
 Rotational symmetry number  2.
 Rotational temperature (Kelvin)      2.83453
 Rotational constant (GHZ):          59.062099
 Zero-point vibrational energy      14698.0 (Joules/Mol)
                                    3.51290 (Kcal/Mol)
 Vibrational temperatures:   3535.52
          (Kelvin)
 
 Zero-point correction=                           0.005598 (Hartree/Particle)
 Thermal correction to Energy=                    0.007959
 Thermal correction to Enthalpy=                  0.008903
 Thermal correction to Gibbs Free Energy=        -0.012852
 Sum of electronic and zero-point Energies=           -109.519283
 Sum of electronic and thermal Energies=              -109.516923
 Sum of electronic and thermal Enthalpies=            -109.515978
 Sum of electronic and thermal Free Energies=         -109.537733
 
                     E (Thermal)             CV                S
                      KCal/Mol        Cal/Mol-Kelvin    Cal/Mol-Kelvin
 Total                    4.994              4.970             45.786
 Electronic               0.000              0.000              0.000
 Translational            0.889              2.981             35.924
 Rotational               0.592              1.987              9.862
 Vibrational              3.513              0.002              0.000
                       Q            Log10(Q)             Ln(Q)
 Total Bot       0.815237D+06          5.911284         13.611234
 Total V=0       0.306380D+09          8.486260         19.540336
 Vib (Bot)       0.266089D-02         -2.574973         -5.929095
 Vib (V=0)       0.100001D+01          0.000003          0.000007
 Electronic      0.100000D+01          0.000000          0.000000
 Translational   0.582551D+07          6.765334         15.577757
 Rotational      0.525924D+02          1.720923          3.962572
 -------------------------------------------------------------------
 Center     Atomic                   Forces (Hartrees/Bohr)
 Number     Number              X              Y              Z
 -------------------------------------------------------------------
      1        7           0.000000126    0.000000015    0.000000073
      2        7          -0.000000126   -0.000000015   -0.000000073
 -------------------------------------------------------------------
 Cartesian Forces:  Max     0.000000126 RMS     0.000000085
 Force constants in Cartesian coordinates: 
                1             2             3             4             5 
      1  0.857903D+00
      2 -0.100991D+00  0.118976D-01
      3  0.791452D+00 -0.931680D-01  0.730161D+00
      4 -0.857903D+00  0.100991D+00 -0.791452D+00  0.857903D+00
      5  0.100991D+00 -0.118976D-01  0.931680D-01 -0.100991D+00  0.118976D-01
      6 -0.791452D+00  0.931680D-01 -0.730161D+00  0.791452D+00 -0.931680D-01
                6 
      6  0.730161D+00
 FormGI is forming the generalized inverse of G from B-inverse, IUseBI=4.
 Force constants in internal coordinates: 
                1 
      1  0.159995D+01
 Leave Link  716 at Tue Aug 16 11:26:29 2022, MaxMem=  2147483648 cpu:               2.5 elap:               0.2
 (Enter /sw/linux/gaussian/g16/g16/l103.exe)

 GradGradGradGradGradGradGradGradGradGradGradGradGradGradGradGradGradGrad
 Berny optimization.
 Red2BG is reusing G-inverse.
 Internal  Forces:  Max     0.000000141 RMS     0.000000141
 Search for a local minimum.
 Step number   1 out of a maximum of    2
 All quantities printed in internal units (Hartrees-Bohrs-Radians)
 Second derivative matrix not updated -- analytic derivatives used.
 The second derivative matrix:
                          R1
           R1           1.59995
 ITU=  0
     Eigenvalues ---    1.59995
 Angle between quadratic step and forces=  90.00 degrees.
 Linear search not attempted -- first point.
 Iteration  1 RMS(Cart)=  0.00000006 RMS(Int)=  0.00000000
 ITry= 1 IFail=0 DXMaxC= 3.22D-08 DCOld= 1.00D+10 DXMaxT= 3.00D-01 DXLimC= 3.00D+00 Rises=F
 Variable       Old X    -DE/DX   Delta X   Delta X   Delta X     New X
                                 (Linear)    (Quad)   (Total)
    R1        2.08909   0.00000   0.00000   0.00000   0.00000   2.08909
         Item               Value     Threshold  Converged?
 Maximum Force            0.000000     0.000450     YES
 RMS     Force            0.000000     0.000300     YES
 Maximum Displacement     0.000000     0.001800     YES
 RMS     Displacement     0.000000     0.001200     YES
 Predicted change in Energy=-6.187188D-15
 Optimization completed.
    -- Stationary point found.
                           ----------------------------
                           !   Optimized Parameters   !
                           ! (Angstroms and Degrees)  !
 --------------------------                            --------------------------
 ! Name  Definition              Value          Derivative Info.                !
 --------------------------------------------------------------------------------
 ! R1    R(1,2)                  1.1055         -DE/DX =    0.0                 !
 --------------------------------------------------------------------------------
 GradGradGradGradGradGradGradGradGradGradGradGradGradGradGradGradGradGrad

 Leave Link  103 at Tue Aug 16 11:26:30 2022, MaxMem=  2147483648 cpu:               1.2 elap:               0.1
 (Enter /sw/linux/gaussian/g16/g16/l9999.exe)
 Dipole is zero, so no output in dipole orientation.

 ----------------------------------------------------------------------

 Electric dipole moment (input orientation):
 (Debye = 10**-18 statcoulomb cm , SI units = C m)
                  (au)            (Debye)         (10**-30 SI)
   Tot        0.000000D+00      0.000000D+00      0.000000D+00
   x          0.000000D+00      0.000000D+00      0.000000D+00
   y          0.000000D+00      0.000000D+00      0.000000D+00
   z          0.000000D+00      0.000000D+00      0.000000D+00

 Dipole polarizability, Alpha (input orientation).
 (esu units = cm**3 , SI units = C**2 m**2 J**-1)
 Alpha(0;0):
               (au)            (10**-24 esu)      (10**-40 SI)
   iso        0.853652D+01      0.126498D+01      0.140748D+01
   aniso      0.719586D+01      0.106632D+01      0.118644D+01
   xx         0.999639D+01      0.148131D+01      0.164818D+01
   yx        -0.454209D+00     -0.673068D-01     -0.748889D-01
   yy         0.619137D+01      0.917466D+00      0.102082D+01
   zx         0.355963D+01      0.527482D+00      0.586903D+00
   zy        -0.419028D+00     -0.620935D-01     -0.690884D-01
   zz         0.942179D+01      0.139617D+01      0.155344D+01

 ----------------------------------------------------------------------
 1\1\GINC-THINC350\Freq\RB3LYP\6-31G(d,p)\N2\LINK\16-Aug-2022\0\\#P Geo
 m=AllCheck Guess=TCheck SCRF=Check GenChk RB3LYP/6-31G(d,p) Freq\\TITL
 E\\0,1\N,-0.7890431258,0.3207483945,-0.7220790244\N,0.0204735515,0.225
 4544126,0.024730754\\Version=ES64L-G16RevB.01\HF=-109.5248812\RMSD=2.4
 25e-10\RMSF=8.475e-08\ZeroPoint=0.0055982\Thermal=0.0079587\Dipole=0.,
 0.,0.\DipoleDeriv=0.,0.,0.,0.,0.,0.,0.,0.,0.,0.,0.,0.,0.,0.,0.,0.,0.,0
 .\Polar=9.9963884,-0.4542086,6.1913696,3.5596265,-0.419028,9.4217889\Q
 uadrupole=-0.2350174,0.3775299,-0.1425125,0.0731205,-0.5730388,0.06745
 65\PG=D*H [C*(N1.N1)]\NImag=0\\0.85790343,-0.10099110,0.01189764,0.791
 45202,-0.09316802,0.73016134,-0.85790343,0.10099110,-0.79145202,0.8579
 0343,0.10099110,-0.01189764,0.09316802,-0.10099110,0.01189764,-0.79145
 202,0.09316802,-0.73016134,0.79145202,-0.09316802,0.73016134\\-0.00000
 013,-0.00000001,-0.00000007,0.00000013,0.00000001,0.00000007\\\@


 Time has a wonderful way of weeding out the trivial.
                                -- Richard Ben Sapir
 Job cpu time:       0 days  0 hours  1 minutes  3.9 seconds.
 Elapsed time:       0 days  0 hours  0 minutes  4.1 seconds.
 File lengths (MBytes):  RWF=      6 Int=      0 D2E=      0 Chk=      1 Scr=      1
 Normal termination of Gaussian 16 at Tue Aug 16 11:26:30 2022.
