[Molden Format]
[Title]
[Atoms] AU
H      1     1 -0.40144094248861E+01 -0.42393012122141E+00  0.40144094248861E+01
H      2     1 -0.31665491824433E+01  0.42393012122141E+00  0.31665491824433E+01
[GTO]
           1 0
 s           3   1.00000000000000     
   3.37022769753360       0.273591105889083     
  0.613891182214980       0.264605406538605     
  0.166142911484160       8.246594753408232E-002
 
           2 0
 s           3   1.00000000000000     
   3.37022769753360       0.273591105889083     
  0.613891182214980       0.264605406538605     
  0.166142911484160       8.246594753408232E-002
 
[MO]
Sym=     1a
Ene=  -0.464660730306153     
Spin= Alpha
Occup=     2.00000000
           1 -0.552202850216100     
           2 -0.552202850216100     
Sym=     2a
Ene=   0.126256928464492     
Spin= Alpha
Occup=     0.00000000
           1   1.17807191721232     
           2  -1.17807191721232     
