2
 energy: -0.647608991640 gnorm: 2.223074584694 xtb: 6.2.2 (655bc02)
H          -2.00000000000000   -0.10000000000000    2.00000000000000
H          -1.80000000000000    0.10000000000000    1.80000000000000
2
 energy: -0.981379777209 gnorm: 0.042065188854 xtb: 6.2.2 (655bc02)
H          -2.10998467365105   -0.20998467365105    2.10998467365105
H          -1.69001532634895    0.20998467365105    1.69001532634895
2
 energy: -0.981756975759 gnorm: 0.034835306875 xtb: 6.2.2 (655bc02)
H          -2.11210574662813   -0.21210574662813    2.11210574662813
H          -1.68789425337187    0.21210574662813    1.68789425337187
2
 energy: -0.982664850798 gnorm: 0.004857663227 xtb: 6.2.2 (655bc02)
H          -2.12230281609976   -0.22230281609976    2.12230281609976
H          -1.67769718390024    0.22230281609976    1.67769718390024
2
 energy: -0.982685789941 gnorm: 0.000644456756 xtb: 6.2.2 (655bc02)
H          -2.12395508187612   -0.22395508187612    2.12395508187612
H          -1.67604491812388    0.22395508187612    1.67604491812388
2
 energy: -0.982686090891 gnorm: 0.000300104450 xtb: 6.2.2 (655bc02)
H          -2.12433417997941   -0.22433417997941    2.12433417997941
H          -1.67566582002059    0.22433417997941    1.67566582002059
