2
 energy: -0.982686090891 gnorm: 0.000300104450 xtb: 6.2.2 (655bc02)
H          -2.12433417997941   -0.22433417997941    2.12433417997941
H          -1.67566582002059    0.22433417997941    1.67566582002059
