[Molden Format]
[Title]
[Atoms] AU
C      1     6  0.26004127708149E+01 -0.13242709348546E+01  0.18391588443994E-02
C      2     6  0.25902483531894E+01  0.13495388025180E+01  0.19136217771115E-02
C      3     6  0.21879608984460E+00  0.23193791621328E+01 -0.10468462266974E-01
S      4    16 -0.20498487793177E+01 -0.50234141318275E-02 -0.30608409751173E-01
C      5     6  0.23640085802957E+00 -0.23121101628592E+01 -0.10540186334211E-01
H      6     1  0.42936359827024E+01 -0.24471690409705E+01  0.10717549167712E-01
H      7     1  0.42748893261411E+01  0.24852709412946E+01  0.10849428664016E-01
H      8     1 -0.35256097417492E+00  0.42622786004250E+01 -0.13232446103769E-01
H      9     1 -0.32017111818747E+00 -0.42592968952305E+01 -0.13382585486484E-01
[GTO]
           1 0
 s           4   1.00000000000000     
   51.0493630955799      -0.163120632101274     
   8.79112274068875      -0.199110245810007     
  0.706404222589298       0.318820477536558     
  0.269228134134116       0.127065041842404     
 p           4   1.00000000000000     
   5.82636561408000       0.737164515452096     
   1.51068960187200       0.682163716148503     
  0.532564832880000       0.357830539292537     
  0.212023236906000       5.398303027584788E-002
 
           2 0
 s           4   1.00000000000000     
   51.0493630955799      -0.163120632101274     
   8.79112274068875      -0.199110245810007     
  0.706404222589298       0.318820477536558     
  0.269228134134116       0.127065041842404     
 p           4   1.00000000000000     
   5.82636561408000       0.737164515452096     
   1.51068960187200       0.682163716148503     
  0.532564832880000       0.357830539292537     
  0.212023236906000       5.398303027584788E-002
 
           3 0
 s           4   1.00000000000000     
   51.0493630955799      -0.163120632101274     
   8.79112274068875      -0.199110245810007     
  0.706404222589298       0.318820477536558     
  0.269228134134116       0.127065041842404     
 p           4   1.00000000000000     
   5.82636561408000       0.737164515452096     
   1.51068960187200       0.682163716148503     
  0.532564832880000       0.357830539292537     
  0.212023236906000       5.398303027584788E-002
 
           4 0
 s           4   1.00000000000000     
   5.94059715667128      -8.937241731159805E-002
   1.67332031646937      -0.180826416098390     
  0.300052353376111       0.217239963388792     
  0.147626982610695       6.093036238655329E-002
 p           4   1.00000000000000     
   7.60402394306428      -0.258148203245547     
  0.785799530644415       0.290555694475872     
  0.355154539932778       0.228494836712103     
  0.171689541475341       3.379048730081900E-002
 d           3   1.00000000000000     
   1.51575937639239       0.574808919567051     
  0.475268595433768       0.261853961962925     
  0.185128831077629       3.488754942672512E-002
 
           5 0
 s           4   1.00000000000000     
   51.0493630955799      -0.163120632101274     
   8.79112274068875      -0.199110245810007     
  0.706404222589298       0.318820477536558     
  0.269228134134116       0.127065041842404     
 p           4   1.00000000000000     
   5.82636561408000       0.737164515452096     
   1.51068960187200       0.682163716148503     
  0.532564832880000       0.357830539292537     
  0.212023236906000       5.398303027584788E-002
 
           6 0
 s           3   1.00000000000000     
   3.37022769753360       0.273591105889083     
  0.613891182214980       0.264605406538605     
  0.166142911484160       8.246594753408230E-002
 
           7 0
 s           3   1.00000000000000     
   3.37022769753360       0.273591105889083     
  0.613891182214980       0.264605406538605     
  0.166142911484160       8.246594753408230E-002
 
           8 0
 s           3   1.00000000000000     
   3.37022769753360       0.273591105889083     
  0.613891182214980       0.264605406538605     
  0.166142911484160       8.246594753408230E-002
 
           9 0
 s           3   1.00000000000000     
   3.37022769753360       0.273591105889083     
  0.613891182214980       0.264605406538605     
  0.166142911484160       8.246594753408230E-002
 
[MO]
Sym=     1a
Ene=  -0.728657492003678     
Spin= Alpha
Occup=     2.00000000
           1  2.114105520700006E-002
           2 -1.657224595420596E-002
           3  4.113390377269356E-003
           4 -1.033106429296591E-004
           5  2.114105343696549E-002
           6 -1.654048164544855E-002
           7 -4.239267630812055E-003
           8 -1.036549382621346E-004
           9  9.276448102980184E-002
          10 -4.336536850842185E-002
          11 -5.313521248503308E-002
          12 -4.009081472588377E-004
          13  0.905942551546893     
          14  1.005300407971398E-002
          15  3.818946534264796E-005
          16  1.171099530846262E-004
          17 -3.040827824037929E-003
          18  3.345130087677822E-003
          19 -3.043022636398924E-004
          20 -2.801796261522882E-005
          21 -4.313475875055341E-005
          22 -1.292493785354933E-007
          23  9.276473473713566E-002
          24 -4.376819745684737E-002
          25  5.280410097312641E-002
          26 -3.993074833588717E-004
          27 -2.489373286648357E-003
          28 -2.489371203550755E-003
          29 -1.357548024370889E-002
          30 -1.357547516162974E-002
Sym=     2a
Ene=  -0.640490993940571     
Spin= Alpha
Occup=     2.00000000
           1 -0.391015607007474     
           2  9.076715642152412E-002
           3 -8.630051321601298E-002
           4  4.753962480133089E-004
           5 -0.391015879848397     
           6  9.010842725698651E-002
           7  8.698795485666533E-002
           8  4.818544952051725E-004
           9 -0.226238738181891     
          10 -0.137892653116839     
          11  7.091896835827513E-002
          12 -7.857172249882363E-004
          13  0.230823604832664     
          14 -0.131067947911269     
          15 -4.982278555121291E-004
          16 -9.903619968941056E-004
          17  1.662562259057773E-002
          18 -1.683804766221706E-002
          19  2.124250716393382E-004
          20  1.468882258197100E-004
          21  1.220410189127655E-004
          22  1.893506397292925E-007
          23 -0.226238499642560     
          24 -0.137349535850941     
          25 -7.196513302630063E-002
          26 -7.869236429094982E-004
          27 -7.921296607869344E-002
          28 -7.921310616844543E-002
          29 -4.215808656296683E-002
          30 -4.215798481312502E-002
Sym=     3a
Ene=  -0.611862707577452     
Spin= Alpha
Occup=     2.00000000
           1  0.244145142376459     
           2 -9.615913286794800E-002
           3 -0.139022700082510     
           4 -5.319962181615152E-004
           5 -0.244144905519065     
           6  9.721320250603718E-002
           7 -0.138287843972918     
           8  5.283738829312021E-004
           9 -0.385497222898554     
          10 -7.429060727611070E-002
          11 -1.603182083209429E-002
          12 -2.794601665927863E-004
          13 -3.203793939236381E-007
          14  6.419283148905790E-004
          15 -0.168821200711321     
          16 -2.987887758928861E-006
          17  1.203105495054227E-004
          18 -1.203080502090075E-004
          19 -2.499296415132073E-009
          20 -1.827212274598264E-002
          21  4.919154940156251E-007
          22 -1.867604405187186E-004
          23  0.385497288386813     
          24  7.441038879574237E-002
          25 -1.546669525875261E-002
          26  2.767720112017613E-004
          27  8.434888381173257E-002
          28 -8.434865630440619E-002
          29 -0.142403619963783     
          30  0.142403655809122     
Sym=     4a
Ene=  -0.569531690525609     
Spin= Alpha
Occup=     2.00000000
           1  0.194343415752184     
           2  0.199854170003325     
           3  0.183539098661425     
           4  1.005397693519200E-003
           5  0.194343479176333     
           6  0.201244069323942     
           7 -0.182014483530632     
           8  9.974925808694682E-004
           9 -0.323340471685324     
          10  1.504829960992487E-002
          11 -0.101254868467372     
          12 -5.213437675708618E-005
          13  0.198816345655681     
          14 -0.168838005332086     
          15 -6.415051686447422E-004
          16 -1.559364169187690E-003
          17 -1.870193378000260E-003
          18 -8.209220823322719E-003
          19  1.007941420132298E-002
          20  2.782308917628161E-005
          21 -1.481288863559966E-004
          22 -8.139248694496559E-007
          23 -0.323340335003388     
          24  1.427828284580918E-002
          25  0.101366308965220     
          26 -4.711140042145161E-005
          27  0.118329514908556     
          28  0.118330217131856     
          29 -0.208794613253144     
          30 -0.208794542327561     
Sym=     5a
Ene=  -0.552685630262920     
Spin= Alpha
Occup=     2.00000000
           1  0.260382180439294     
           2  5.517511262034332E-002
           3 -0.137535184051967     
           4  3.509209140088320E-004
           5 -0.260382153551910     
           6 -5.412844520967611E-002
           7 -0.137950558819659     
           8 -3.577231986716491E-004
           9  0.169781038582270     
          10 -0.262885928594560     
          11  4.711984558580502E-002
          12 -1.709123044842835E-003
          13  2.932313209427258E-007
          14 -1.259238722285490E-003
          15  0.331243680951819     
          16  4.536830338729619E-006
          17 -3.830453147541539E-005
          18  3.829610103108543E-005
          19  8.430444329965026E-009
          20  5.813270388923357E-003
          21 -1.012670650076333E-007
          22  4.223541971174576E-005
          23 -0.169781190295737     
          24  0.262520434950432     
          25  4.911738646839717E-002
          26  1.708241748301715E-003
          27  0.190352056098764     
          28 -0.190352127053757     
          29  0.159557712632783     
          30 -0.159558270170312     
Sym=     6a
Ene=  -0.534449259796061     
Spin= Alpha
Occup=     2.00000000
           1  9.818113110088020E-002
           2  0.225930846101530     
           3 -0.150998087905357     
           4  1.205378376671542E-003
           5  9.818071357418123E-002
           6  0.224776439247589     
           7  0.152711090514729     
           8  1.212749329854134E-003
           9  4.769256882032668E-002
          10 -1.185509499310914E-002
          11  0.265146698881877     
          12 -5.332714436534972E-005
          13  0.139496912444354     
          14 -0.245179027701046     
          15 -9.319134401789313E-004
          16 -1.992283349998527E-003
          17  1.924533904164924E-002
          18 -3.398655354302638E-003
          19 -1.584668368734660E-002
          20  9.940964428768897E-005
          21  3.211512188187575E-004
          22  1.438271572748438E-006
          23  4.769215943504292E-002
          24 -9.838855108068301E-003
          25 -0.265229008152360     
          26 -6.318223357845331E-005
          27  0.238066602045845     
          28  0.238066382435764     
          29  0.206752199187465     
          30  0.206751834064240     
Sym=     7a
Ene=  -0.481041331076080     
Spin= Alpha
Occup=     2.00000000
           1  8.890357713653973E-005
           2 -1.396770701864845E-003
           3  1.425199335582457E-003
           4  0.372219046382405     
           5  9.308338751958744E-005
           6 -1.376886825692968E-003
           7 -1.452094112411630E-003
           8  0.372219117480101     
           9  3.456191485299371E-004
          10 -3.403272099142615E-003
          11 -6.334384098872856E-005
          12  0.368762068228603     
          13 -2.733295530561660E-004
          14 -3.136594690837329E-003
          15 -1.477362337343585E-005
          16  0.418092248893712     
          17 -5.969524172833346E-005
          18  4.240906963911003E-005
          19  1.728617208922343E-005
          20 -1.191768204470332E-006
          21  4.437878603396109E-003
          22  1.686684795815463E-005
          23  3.526430138516512E-004
          24 -3.390749844268262E-003
          25  3.137295170492892E-005
          26  0.368762398972957     
          27 -2.103225691695614E-004
          28 -1.992415748717847E-004
          29  6.805627738444651E-004
          30  6.739349341567011E-004
Sym=     8a
Ene=  -0.473176912371084     
Spin= Alpha
Occup=     2.00000000
           1 -6.253195965481394E-002
           2  0.204422355605156     
           3 -2.371144826619796E-002
           4  1.343941582271291E-003
           5  6.253234063697838E-002
           6 -0.204239946313934     
           7 -2.525683325435636E-002
           8 -1.339538941228312E-003
           9  8.677984850984845E-002
          10  5.466531494564616E-002
          11 -0.385525096445666     
          12 -4.922243958231856E-004
          13  2.060663056218902E-006
          14 -1.128534381616294E-003
          15  0.295932862303734     
          16  1.046196151087814E-005
          17 -1.244258383100967E-004
          18  1.243228235382887E-004
          19  1.030147718080294E-007
          20  1.891202263697869E-002
          21 -9.200313427007615E-008
          22  1.307692739002794E-004
          23 -8.678111174860534E-002
          24 -5.172590824430023E-002
          25 -0.385928082055452     
          26  4.894811411338987E-004
          27  0.136500109115319     
          28 -0.136498762562256     
          29 -0.324686106598252     
          30  0.324681680209091     
Sym=     9a
Ene=  -0.467999919540473     
Spin= Alpha
Occup=     2.00000000
           1  6.065617895766593E-003
           2 -0.170888329328859     
           3 -0.360020631391159     
           4  9.570675193426894E-004
           5  6.063551613644512E-003
           6 -0.173619986877753     
           7  0.358711258399787     
           8  9.753447254887340E-004
           9 -5.478257631898874E-002
          10  0.329092204662908     
          11 -6.190473161468982E-002
          12  3.164621152746446E-003
          13  0.187051755213782     
          14 -0.310572121543508     
          15 -1.187438951749105E-003
          16 -2.099635687874077E-003
          17  1.138746704584569E-002
          18 -2.278459917143344E-002
          19  1.139713212558774E-002
          20  1.498644001856300E-004
          21  4.593719000181646E-006
          22 -5.158561108106081E-007
          23 -5.478146922168837E-002
          24  0.328608735923150     
          25  6.441478298069385E-002
          26  3.158484527018025E-003
          27  5.195209742212006E-002
          28  5.195000773724728E-002
          29 -0.207088407563528     
          30 -0.207096826370231     
Sym=    10a
Ene=  -0.462816474318813     
Spin= Alpha
Occup=     2.00000000
           1  8.234929632675231E-002
           2  0.291907227683506     
           3 -3.786335537760471E-002
           4  1.056786791763269E-003
           5 -8.234900233402301E-002
           6 -0.291607394875794     
           7 -4.008660627087005E-002
           8 -1.056668407538957E-003
           9  8.743298420713000E-002
          10  0.263834779450247     
          11  0.106337155747992     
          12  2.665831468621709E-003
          13 -1.667446588616534E-006
          14  1.678486467894079E-003
          15 -0.440735745481186     
          16  4.878042203332496E-006
          17 -1.321729584353368E-004
          18  1.322043800305759E-004
          19 -3.142159523905085E-008
          20  2.005887665904449E-002
          21 -2.618321698511070E-007
          22  1.881298259331548E-004
          23 -8.743266138482263E-002
          24 -0.264641297592821     
          25  0.104328389173451     
          26 -2.647238658349437E-003
          27  0.321727013626850     
          28 -0.321726961604689     
          29  8.451494061035049E-002
          30 -8.451250853788966E-002
Sym=    11a
Ene=  -0.448735330547030     
Spin= Alpha
Occup=     2.00000000
           1 -8.646198848665268E-002
           2  0.165833837841066     
           3 -0.272073706961134     
           4  5.943778709559508E-004
           5 -8.646150660178370E-002
           6  0.163761575881201     
           7  0.273326668348529     
           8  6.136582840815721E-004
           9  4.584168464889786E-002
          10 -0.124360182499400     
          11 -0.193740384546170     
          12 -6.652252196962531E-004
          13 -0.130823229416960     
          14  0.570390798170984     
          15  2.168955726411534E-003
          16  6.130638614129782E-003
          17 -1.116112553940329E-002
          18  6.338841511151066E-003
          19  4.822284028252222E-003
          20 -7.683068917545113E-005
          21 -9.319055065450329E-005
          22 -2.417932660255113E-007
          23  4.584192276095522E-002
          24 -0.125828644853308     
          25  0.192789195922252     
          26 -6.639966335180214E-004
          27  0.257254236910317     
          28  0.257255267407600     
          29 -0.137797633746269     
          30 -0.137797461957036     
Sym=    12a
Ene=  -0.395884349678174     
Spin= Alpha
Occup=     2.00000000
           1  3.307827748819901E-004
           2  1.622954943668493E-003
           3 -1.574500469561258E-004
           4 -0.416618903839653     
           5  3.261717294759832E-004
           6  1.631290029722364E-003
           7  1.906602845141527E-004
           8 -0.416633691773526     
           9 -5.885592899341562E-005
          10  2.951981846827328E-004
          11  6.024274957728280E-005
          12  3.398724705638217E-002
          13  1.212315277115934E-004
          14 -8.145075338755574E-003
          15 -3.875933069675001E-005
          16  0.781559122127748     
          17  3.855404268489761E-004
          18 -1.561488018388590E-004
          19 -2.293916250101170E-004
          20  1.859150488558584E-006
          21 -1.752792611715050E-002
          22 -6.793987080081152E-005
          23 -5.557390401726095E-005
          24  2.994251908220835E-004
          25 -5.923595933174673E-005
          26  3.401262286439666E-002
          27 -2.770179302359291E-004
          28 -2.701936359765386E-004
          29 -1.801016913419778E-004
          30 -1.788780614322302E-004
Sym=    13a
Ene=  -0.393027411922255     
Spin= Alpha
Occup=     2.00000000
           1  1.578812736275463E-004
           2 -1.416205485533982E-003
           3  7.101394433585395E-005
           4  0.340406294339759     
           5 -1.640040517277305E-004
           6  1.419783123612938E-003
           7  1.049170745553251E-004
           8 -0.340387750137913     
           9 -5.798934050920531E-004
          10  4.187730744201842E-003
          11  1.189986196618108E-003
          12 -0.571037457559033     
          13  9.707030501876772E-007
          14  4.745502236236894E-006
          15 -7.881160651533252E-004
          16 -1.732498236181114E-005
          17 -2.168177291517453E-006
          18  3.994024714494091E-006
          19 -1.825847422976638E-006
          20  3.498003979384165E-004
          21  2.338709534358446E-004
          22 -6.140895543440998E-002
          23  5.864565887967570E-004
          24 -4.189029658844182E-003
          25  1.141333271788466E-003
          26  0.571035722399035     
          27  5.802670467971691E-004
          28 -5.762387799208361E-004
          29  5.150374755868661E-004
          30 -5.211434556953849E-004
Sym=    14a
Ene=  -0.242345364068811     
Spin= Alpha
Occup=     0.00000000
           1 -2.839450934434344E-004
           2  2.059340136913231E-003
           3  1.059087927957670E-005
           4 -0.358247080751343     
           5 -2.876683432215694E-004
           6  2.058952648587843E-003
           7  2.802211917847837E-005
           8 -0.358246853082986     
           9  4.997099481638745E-004
          10 -3.658264783729767E-003
          11 -5.723741611646281E-004
          12  0.581375667824062     
          13  1.371396311068690E-004
          14  3.428604679064769E-003
          15  3.134732288656027E-005
          16 -0.477097787728258     
          17 -2.255590921975588E-003
          18 -6.638991081590454E-004
          19  2.919490030134633E-003
          20 -1.795592750592276E-005
          21  0.194489737445798     
          22  7.389499504404733E-004
          23  5.133376606773570E-004
          24 -3.664249036399413E-003
          25  5.298600824604963E-004
          26  0.581375982706267     
          27  3.356414073480425E-004
          28  3.344773896386893E-004
          29  2.206870572769441E-005
          30  1.922505139096785E-005
Sym=    15a
Ene=  -0.198066038349692     
Spin= Alpha
Occup=     0.00000000
           1  6.168528142231360E-002
           2 -9.836577323013888E-002
           3 -9.507085069903566E-002
           4  4.283217551721295E-003
           5 -6.168565228071597E-002
           6  9.908525751060845E-002
           7 -9.431985298351239E-002
           8 -4.299433783765961E-003
           9  0.244631157813165     
          10 -0.246579655075415     
          11 -0.186349490136597     
          12  2.247115343826513E-004
          13 -4.407769133111723E-007
          14  2.499053782907572E-003
          15 -0.657665836709974     
          16 -1.625650100015876E-005
          17 -3.519029146205162E-003
          18  3.519332520581096E-003
          19 -3.033743759338746E-007
          20  0.534489143835362     
          21 -1.020661844832592E-005
          22  5.881897038055251E-003
          23 -0.244630138037522     
          24  0.247987981386442     
          25 -0.184468655326863     
          26 -2.119517453959499E-004
          27 -0.118862679757824     
          28  0.118863362723456     
          29 -5.350446824679996E-002
          30  5.350372990123625E-002
Sym=    16a
Ene=  -0.167163295600493     
Spin= Alpha
Occup=     0.00000000
           1  6.040184019880458E-004
           2  2.956698968821443E-003
           3 -6.227208783356799E-004
           4 -0.700916654063442     
           5 -5.981197078558491E-004
           6 -2.961045101916905E-003
           7 -6.760141506904233E-004
           8  0.700916801889980     
           9  1.361830259874636E-003
          10  7.713643949078395E-004
          11 -7.707835629202285E-004
          12 -0.367872291846237     
          13 -3.516413359034142E-006
          14  9.293391237203136E-006
          15 -4.199602704537173E-003
          16 -2.240385216080282E-007
          17 -3.684827416269005E-005
          18  4.784500662595915E-005
          19 -1.099673246326910E-005
          20  6.118896987763030E-003
          21  9.423804228902999E-004
          22 -0.247844600789129     
          23 -1.357840505597096E-003
          24 -7.711362368888126E-004
          25 -7.869080282643726E-004
          26  0.367871685729155     
          27 -7.327096801817808E-004
          28  7.359021688666708E-004
          29 -3.549656706778701E-004
          30  3.547372690317708E-004
Sym=    17a
Ene=  -0.111257332451928     
Spin= Alpha
Occup=     0.00000000
           1 -5.005235840081108E-002
           2 -6.458881444221075E-003
           3 -1.094040807377943E-002
           4  1.150263233153939E-004
           5 -5.005190143151308E-002
           6 -6.542252556212224E-003
           7  1.089112165434445E-002
           8  1.044213585318360E-004
           9  0.272918684608065     
          10 -0.252163870589130     
          11 -0.186195643778030     
          12 -2.240146276975342E-003
          13 -0.323415646534076     
          14 -0.527160393176858     
          15 -2.003265854567142E-003
          16 -4.620496304279588E-003
          17  0.326189906379504     
          18  0.347462936930750     
          19 -0.673652843310254     
          20 -9.492112966264395E-005
          21  1.036263064557908E-002
          22  6.080324655427544E-005
          23  0.272919205173451     
          24 -0.253572329091166     
          25  0.184273732500301     
          26 -2.240290445367901E-003
          27  9.264505266264415E-002
          28  9.264482390299741E-002
          29 -0.168309181980911     
          30 -0.168309565134475     
Sym=    18a
Ene=   3.240865844542746E-003
Spin= Alpha
Occup=     0.00000000
           1 -0.186464483698081     
           2  7.299177398452698E-002
           3  6.026074043419802E-002
           4  6.645038661896373E-004
           5 -0.186464132941427     
           6  7.344740091541727E-002
           7 -5.970447615117466E-002
           8  6.630664752390992E-004
           9 -2.980133287782011E-002
          10  1.593970921877846E-002
          11 -6.299955132157387E-002
          12  1.508155627062297E-004
          13 -1.650269465709999E-002
          14  1.012116398217308E-002
          15  3.859090220208096E-005
          16 -1.056800336332036E-004
          17  0.866794684129755     
          18 -0.813792871894686     
          19 -5.300181223506911E-002
          20  7.376965319218297E-003
          21  5.030157016816554E-003
          22  1.167227242441298E-005
          23 -2.980124950412379E-002
          24  1.546037813086883E-002
          25  6.311887487455155E-002
          26  1.551734993884719E-004
          27  0.100857564426035     
          28  0.100857657334947     
          29  0.236566678491995     
          30  0.236567041492079     
Sym=    19a
Ene=   3.290658334299129E-002
Spin= Alpha
Occup=     0.00000000
           1 -1.253883952537748E-004
           2  3.912338321467509E-005
           3  9.266488331499470E-005
           4  4.560330219868723E-002
           5 -1.226452408846689E-004
           6  4.124387789117901E-005
           7 -9.950921760205938E-005
           8  4.560874675990006E-002
           9 -4.293676021223131E-004
          10  2.141511283451080E-003
          11  7.963416730934619E-005
          12 -0.299754828614277     
          13 -3.809925447816180E-005
          14 -1.090124899397127E-003
          15 -5.667219251760068E-006
          16  0.152092442393375     
          17 -1.176400124583789E-002
          18 -3.635776883058074E-003
          19  1.539977812889597E-002
          20 -5.222352464719448E-005
          21   1.01537793535296     
          22  3.875330479730037E-003
          23 -4.328237303262140E-004
          24  2.139414500441624E-003
          25 -5.067999101895152E-005
          26 -0.299744985111961     
          27 -1.731766795688707E-004
          28 -1.732316501516052E-004
          29  9.751604147297191E-004
          30  9.778739021626729E-004
Sym=    20a
Ene=   3.880645911186054E-002
Spin= Alpha
Occup=     0.00000000
           1  7.133680210558255E-004
           2 -1.131973097742146E-003
           3 -4.048674578400357E-004
           4  0.175414502672548     
           5 -7.147889202384613E-004
           6  1.136686116711785E-003
           7 -3.880796270728772E-004
           8 -0.175412963744810     
           9  5.131093620132009E-004
          10 -1.757294082180940E-003
          11 -2.298766999039517E-004
          12  0.327160148544105     
          13 -4.039799828670678E-007
          14 -1.863952238681538E-006
          15  5.240101864429091E-004
          16  2.687078698283070E-006
          17 -4.950946319559821E-005
          18  7.818675892749107E-005
          19 -2.867729573189286E-005
          20  8.389609065487648E-003
          21  3.831259720970541E-003
          22  -1.00358080456516     
          23 -5.176269555396203E-004
          24  1.756651809396074E-003
          25 -2.033052237162070E-004
          26 -0.327170083763973     
          27 -5.951724508171133E-004
          28  5.950618614055348E-004
          29 -2.479419414146888E-005
          30  3.029829758714196E-005
Sym=    21a
Ene=   0.132283605007820     
Spin= Alpha
Occup=     0.00000000
           1  0.723574069327693     
           2  0.102673659207880     
           3  0.236684912355495     
           4  5.919219682870671E-004
           5 -0.723568104126253     
           6 -0.104459498214466     
           7  0.235902001244058     
           8 -5.731619909366204E-004
           9  0.369526151849849     
          10  0.145699421492741     
          11  0.326497824076261     
          12  8.167283984604985E-004
          13  1.643801220464155E-006
          14 -4.318781581421470E-004
          15  0.114223624640339     
          16  1.396300947381076E-006
          17 -1.327381877267961E-004
          18  1.352751136132416E-004
          19 -2.536925886445603E-006
          20  2.059980336831317E-002
          21 -3.704031407861412E-006
          22  1.003372227161417E-003
          23 -0.369521526051650     
          24 -0.148173587798923     
          25  0.325376901207469     
          26 -8.033148412829522E-004
          27 -0.371795367302187     
          28  0.371781585608468     
          29 -0.506603936851369     
          30  0.506598670207812     
Sym=    22a
Ene=   0.156541508129145     
Spin= Alpha
Occup=     0.00000000
           1  0.236475494959738     
           2  0.514197743449627     
           3 -0.122647780462903     
           4  2.681563651025975E-003
           5  0.236485417632503     
           6  0.513248637176848     
           7  0.126550154482974     
           8  2.695736448927896E-003
           9  0.384202194731063     
          10  0.132604481809971     
          11  0.328327719500018     
          12  1.069362789035726E-003
          13  0.157367201258589     
          14  0.213256259975601     
          15  8.089421384318260E-004
          16  1.785308058411447E-003
          17  0.268264052504416     
          18 -0.131682879418586     
          19 -0.136581173085830     
          20  1.755235628076836E-003
          21  3.561866364001027E-003