9
 energy: -13.816802539076 gnorm: 0.027995421732 xtb: 6.5.0 (746241f)
C            1.38270000000000       -0.70610000000000        0.00090000000000
C            1.37730000000000        0.71950000000000        0.00090000000000
C            0.11380000000000        1.24880000000000       -0.00630000000000
S           -1.09590000000000       -0.00270000000000       -0.01420000000000
C            0.12330000000000       -1.24500000000000       -0.00640000000000
H            2.29630000000000       -1.29170000000000        0.00640000000000
H            2.28640000000000        1.31210000000000        0.00640000000000
H           -0.21000000000000        2.28250000000000       -0.00780000000000
H           -0.19270000000000       -2.28110000000000       -0.00790000000000
9
 energy: -13.818133773890 gnorm: 0.009888312472 xtb: 6.5.0 (746241f)
C            1.37640564437628       -0.70126560342745        0.00106322060406
C            1.37102789105490        0.71462767013558        0.00107725846399
C            0.11863918839886        1.23457230845737       -0.00647426670565
S           -1.09036395496859       -0.00267693284527       -0.01306215076882
C            0.12802135280183       -1.23072377931450       -0.00651677529239
H            2.27980651249051       -1.28790168862543        0.00636518106720
H            2.26991905525541        1.30815360962584        0.00642354369271
H           -0.19469879626374        2.26069996539553       -0.00839198197722
H           -0.17755689314547       -2.25918554940169       -0.00848402908389
9
 energy: -13.818244017700 gnorm: 0.005750253651 xtb: 6.5.0 (746241f)
C            1.37542571272369       -0.70079894614371        0.00092582785043
C            1.37004645599060        0.71416003193504        0.00096639044105
C            0.11839310848663        1.22993686002981       -0.00610384200204
S           -1.08635235991615       -0.00266250044070       -0.01445643806731
C            0.12773445155923       -1.22608065852277       -0.00614501676363
H            2.27427787851327       -1.29081469093583        0.00610144952948
H            2.26437305039571        1.31100864978693        0.00616842157088
H           -0.18990776016243        2.25547453002125       -0.00768885177707
H           -0.17279053759054       -2.25392327573002       -0.00776794078178
9
 energy: -13.818269018561 gnorm: 0.002621349032 xtb: 6.5.0 (746241f)
C            1.37577074867425       -0.70082484033653        0.00104187643762
C            1.37039083262004        0.71419214452815        0.00105799884351
C            0.11702175349041        1.22801972730199       -0.00680191518952
S           -1.08498226000928       -0.00265841148001       -0.01198103461367
C            0.12634513718766       -1.22416745125985       -0.00684149965628
H            2.27261739676982       -1.29346126853630        0.00657200738192
H            2.26270183191608        1.31363278127800        0.00661166214895
H           -0.18789563585227        2.25479465660242       -0.00877804474918
H           -0.17076980479671       -2.25322733809789       -0.00888105060335
9
 energy: -13.818273797982 gnorm: 0.000815005044 xtb: 6.5.0 (746241f)
C            1.37607917726025       -0.70077399978824        0.00097324094769
C            1.37070039909071        0.71414517952385        0.00101264503474
C            0.11578190458077        1.22736259604743       -0.00553967166490
S           -1.08473325981530       -0.00265827627950       -0.01619727290235
C            0.12509794670752       -1.22351600728574       -0.00557762640675
H            2.27209431396561       -1.29498608771260        0.00567148277630
H            2.26217401053271        1.31514874505626        0.00574127040033
H           -0.18656723298766        2.25550070187080       -0.00700230892264
H           -0.16942725933462       -2.25392285143226       -0.00708175926243
