 Entering Gaussian System
 *********************************************
 Gaussian 98:
 frequency output generated by the xtb code
 *********************************************
                         Standard orientation:
 --------------------------------------------------------------------
  Center     Atomic     Atomic              Coordinates (Angstroms)
  Number     Number      Type              X           Y           Z
 --------------------------------------------------------------------
    1          7             0       -0.237476    0.804481   -0.151941
    2          1             0        0.779854    0.830426   -0.204214
    3          1             0       -0.549082    0.310441   -0.986919
    4          1             0       -0.549072    1.768272   -0.263171
 --------------------------------------------------------------------
     1 basis functions        1 primitive gaussians
     1 alpha electrons        1 beta electrons
 
 Harmonic frequencies (cm**-1), IR intensities (KM/Mole),
 Raman scattering activities (A**4/amu), Raman depolarization ratios,
 reduced masses (AMU), force constants (mDyne/A) and normal coordinates:
                      1                      2                      3
                        a                      a                      a 
 Frequencies --  1250.6005              1614.0747              1614.1722
 Red. masses --     3.0728                 1.7928                 1.7928
 Frc consts  --     0.0000                 0.0000                 0.0000
 IR Inten    --     0.6363                 0.2173                 0.2173
 Raman Activ --     0.0000                 0.0000                 0.0000
 Depolar     --     0.0000                 0.0000                 0.0000
 Atom AN      X      Y      Z        X      Y      Z        X      Y      Z
   1   7     0.13   0.17  -0.34    -0.16   0.18   0.03     0.16   0.13   0.13
   2   1     0.01  -0.24   0.47    -0.02  -0.38  -0.41     0.02  -0.56  -0.05
   3   1    -0.25  -0.34   0.32     0.62  -0.36  -0.01    -0.02   0.30  -0.15
   4   1    -0.25  -0.05   0.46     0.02   0.06   0.33    -0.62  -0.23  -0.28
                      4                      5                      6
                        a                      a                      a 
 Frequencies --  3357.8235              3399.2304              3399.2871
 Red. masses --     1.2510                 2.0131                 2.0131
 Frc consts  --     0.0000                 0.0000                 0.0000
 IR Inten    --     0.0673                 0.0275                 0.0275
 Raman Activ --     0.0000                 0.0000                 0.0000
 Depolar     --     0.0000                 0.0000                 0.0000
 Atom AN      X      Y      Z        X      Y      Z        X      Y      Z
   1   7    -0.05  -0.06   0.12    -0.12  -0.20  -0.15     0.23  -0.15   0.02
   2   1     0.57  -0.01   0.02     0.37  -0.02  -0.03    -0.69  -0.03   0.02
   3   1    -0.20  -0.31  -0.44     0.25   0.39   0.63     0.02  -0.04  -0.02
   4   1    -0.20   0.53  -0.01    -0.16   0.39  -0.05    -0.19   0.63  -0.05
