      -----------------------------------------------------------      
     |                   =====================                   |     
     |                           x T B                           |     
     |                   =====================                   |     
     |                         S. Grimme                         |     
     |          Mulliken Center for Theoretical Chemistry        |     
     |                    University of Bonn                     |     
      -----------------------------------------------------------      

   * xtb version 6.2.2 (655bc02) compiled by 'ehlert@majestix' on 2019-12-09

   This program is distributed in the hope that it will be useful,
   but WITHOUT ANY WARRANTY; without even the implied warranty of
   MERCHANTABILITY or FITNESS FOR A PARTICULAR PURPOSE.
   
   FOR NON-COMMERCIAL, ACADEMIA USE ONLY.
   
   Cite this work as:
   * S. Grimme, C. Bannwarth, P. Shushkov, J. Chem. Theory Comput., 2017,
     13, 1989-2009. DOI: 10.1021/acs.jctc.7b00118
   * C. Bannwarth, S. Ehlert and S. Grimme., J. Chem. Theory Comput., 2019,
     15, 1652-1671. DOI: 10.1021/acs.jctc.8b01176
   * P. Pracht, E. Caldeweyher, S. Ehlert, S. Grimme, ChemRxiv, 2019, preprint.
     DOI: 10.26434/chemrxiv.8326202.v1
   
   for DFT-D4:
   * E. Caldeweyher, C. Bannwarth and S. Grimme, J. Chem. Phys., 2017,
     147, 034112. DOI: 10.1063/1.4993215
   * E. Caldeweyher, S. Ehlert, A. Hansen, H. Neugebauer, S. Spicher,
     C. Bannwarth and S. Grimme, J. Chem. Phys., 2019, 150, 154122.
     DOI: 10.1063/1.5090222
   
   for sTDA-xTB:
   * S. Grimme and C. Bannwarth, J. Chem. Phys., 2016, 145, 054103.
     DOI: 10.1063/1.4959605
   
   in the mass-spec context:
   * V. Asgeirsson, C. Bauer and S. Grimme, Chem. Sci., 2017, 8, 4879.
     DOI: 10.1039/c7sc00601b
   
   for metadynamics refer to:
   * S. Grimme, J. Chem. Theory Comput., 2019, 155, 2847-2862
     DOI: 10.1021/acs.jctc.9b00143
   
   with help from (in alphabetical order)
   C. Bannwarth, F. Bohle, G. Brandenburg, E. Caldeweyher, M. Checinski,
   S. Dohm, S. Ehlert, S. Ehrlich, F. März, H. Neugebauer, J. Pisarek,
   P. Pracht, P. Shushkov, and S. Spicher.
   
 * started run on 2022/08/16 at 10:50:03.210     

           -------------------------------------------------
          |                Calculation Setup                |
           -------------------------------------------------

          program call               : xtb -c 0 -u 0 input.xyz --hess
          coordinate file            : input.xyz
          omp threads                :                     8
          number of atoms            :                     4
          number of electrons        :                     8
          charge                     :                     0
          spin                       :                   0.0
          first test random number   :      0.92759682743145


########################################################################
# WARNING! Please study the warnings concerning your input carefully
#  - XTBHOME is not set, using HOME instead
#  - XTBPATH is not set, using XTBHOME instead
########################################################################

           ------------------------------------------------- 
          |                 G F N 2 - x T B                 |
          | Geometry, Frequencies, Noncovalent interactions |
          |            JCTC 2019 parametrisation            |
           ------------------------------------------------- 
             k(s)              :                1.8500
             k(p)              :                2.2300
             k(d)              :                2.2300
             k(f)              :                2.0000
             kEN (H0ij)        :               -2.0000
             D4 a1             :                0.5200
             D4 a2             :                5.0000
             D4 s6             :                1.0000
             D4 s8             :                2.7000
             D4 s9             :                5.0000
             alphaj            :                2.0000

  Z AO/shell   Hii/eV     exponent
  1     Wed Apr 25 08:07:45 CEST 2018   EN: 2.200 GM2: 0.406  GM3: 0.0800  RAES: 1.40
     1s    -10.707211    1.230000
  7     Wed Apr 25 08:07:45 CEST 2018   EN: 3.040 GM2: 0.461  GM3:-0.0640  RAES: 1.90
     2s    -16.686243    2.339881
     2p    -12.523956    2.014332

           ------------------------------------------------- 
          |        Self-Consistent Charge Iterations        |
           ------------------------------------------------- 

          ...................................................
          :                      SETUP                      :
          :.................................................:
          :  # basis functions                   7          :
          :  # atomic orbitals                   7          :
          :  # shells                            5          :
          :  # electrons                         8          :
          :  max. iterations                   250          :
          :  Hamiltonian                  GFN2-xTB          :
          :  restarted?                      false          :
          :  GBSA solvation                  false          :
          :  PC potential                    false          :
          :  electronic temp.          300.0000000     K    :
          :  accuracy                    1.0000000          :
          :  -> integral cutoff          0.2500000E+02      :
          :  -> integral neglect         0.1000000E-07      :
          :  -> SCF convergence          0.1000000E-05 Eh   :
          :  -> wf. convergence          0.1000000E-03 e    :
          :  Broyden damping             0.4000000          :
          ...................................................

 iter      E             dE          RMSdq      gap      omega  full diag
   1     -4.4655681 -0.446557E+01  0.394E+00   11.72       0.0  T
   2     -4.4789465 -0.133784E-01  0.161E+00   12.27       1.0  T
   3     -4.4793097 -0.363221E-03  0.664E-01   12.34       1.0  T
   4     -4.4793259 -0.162169E-04  0.435E-02   12.29       1.2  T
   5     -4.4793260 -0.608768E-07  0.148E-02   12.28       3.4  T
   6     -4.4793262 -0.167813E-06  0.965E-04   12.28      51.8  T
   7     -4.4793262 -0.248657E-09  0.483E-04   12.28     103.4  T

   *** convergence criteria satisfied after 7 iterations ***

         #    Occupation            Energy/Eh            Energy/eV
      -------------------------------------------------------------
         1        2.0000           -0.5963224             -16.2268
         2        2.0000           -0.5004870             -13.6189
         3        2.0000           -0.5004864             -13.6189
         4        2.0000           -0.3901202             -10.6157 (HOMO)
         5                          0.0612013               1.6654 (LUMO)
         6                          0.1979973               5.3878
         7                          0.1980026               5.3879
      -------------------------------------------------------------
                  HL-Gap            0.4513215 Eh           12.2811 eV
             Fermi-level           -0.1644594 Eh           -4.4752 eV

 SCC (total)                   0 d,  0 h,  0 min,  0.002 sec
 SCC setup                      ...        0 min,  0.000 sec (  2.477%)
 Dispersion                     ...        0 min,  0.000 sec (  0.833%)
 integral evaluation            ...        0 min,  0.000 sec (  3.046%)
 zeroth order Hamiltonian       ...        0 min,  0.000 sec (  0.443%)
 iterations                     ...        0 min,  0.001 sec ( 29.619%)
 molecular gradient             ...        0 min,  0.000 sec (  6.630%)
 printout                       ...        0 min,  0.001 sec ( 55.750%)

         :::::::::::::::::::::::::::::::::::::::::::::::::::::
         ::                     SUMMARY                     ::
         :::::::::::::::::::::::::::::::::::::::::::::::::::::
         :: total energy              -4.426032281540 Eh    ::
         :: gradient norm              0.011534151623 Eh/a0 ::
         :: HOMO-LUMO gap             12.281083963836 eV    ::
         ::.................................................::
         :: SCC energy                -4.479326161614 Eh    ::
         :: -> isotropic ES            0.014204770563 Eh    ::
         :: -> anisotropic ES          0.002007392162 Eh    ::
         :: -> anisotropic XC          0.004485671094 Eh    ::
         :: -> dispersion             -0.000367612034 Eh    ::
         :: repulsion energy           0.053293885335 Eh    ::
         :: add. restraining           0.000000000000 Eh    ::
         :::::::::::::::::::::::::::::::::::::::::::::::::::::

           ------------------------------------------------- 
          |                Numerical Hessian                |
           ------------------------------------------------- 
step length          :   0.00500
SCC accuracy         :   0.30000
Hessian scale factor :   1.00000
frozen atoms in %    :   0.00000    0
RMS gradient         :   0.01153
#WARNING! Hessian on incompletely optimized geometry!
estimated CPU  time      0.00 min
estimated wall time      0.00 min

writing file <hessian>.

 projected vibrational frequencies (cm-1)
eigval :       -0.00    -0.00    -0.00    -0.00    -0.00     0.00
eigval :     1250.60  1614.07  1614.17  3357.82  3399.23  3399.29
           -------------------------------------------------
          |                Property Printout                |
           -------------------------------------------------

    * Orbital Energies and Occupations

         #    Occupation            Energy/Eh            Energy/eV
      -------------------------------------------------------------
         1        2.0000           -0.5963203             -16.2267
         2        2.0000           -0.5004842             -13.6189
         3        2.0000           -0.5004837             -13.6189
         4        2.0000           -0.3901158             -10.6156 (HOMO)
         5                          0.0612028               1.6654 (LUMO)
         6                          0.1980000               5.3879
         7                          0.1980053               5.3880
      -------------------------------------------------------------
                  HL-Gap            0.4513185 Eh           12.2810 eV
             Fermi-level           -0.1644565 Eh           -4.4751 eV

     #   Z        covCN         q      C6AA      α(0)
     1   7 N      2.579    -0.425    31.106     8.283
     2   1 H      0.860     0.142     1.458     1.892
     3   1 H      0.860     0.142     1.458     1.892
     4   1 H      0.860     0.142     1.458     1.892

 Mol. C6AA /au·bohr⁶  :         84.356237
 Mol. C8AA /au·bohr⁸  :       1500.142963
 Mol. α(0) /au        :         13.958041


Wiberg/Mayer (AO) data.
largest (>0.10) Wiberg bond orders for each atom
          total WBO             WBO to atom ...
     1  N   2.936        H    2 0.979    H    3 0.979    H    4 0.979
     2  H   0.980        N    1 0.979
     3  H   0.980        N    1 0.979
     4  H   0.980        N    1 0.979

molecular dipole:
                 x           y           z       tot (Debye)
 q only:        0.106       0.133      -0.268
   full:        0.246       0.310      -0.624       1.877
molecular quadrupole (traceless):
                xx          xy          yy          xz          yz          zz
 q only:       -0.229       0.060       0.477       0.318      -0.436      -0.249
  q+dip:       -0.637       0.206       1.039       0.610      -1.183      -0.402
   full:       -0.551       0.152       1.100       0.719      -1.047      -0.548

           -------------------------------------------------
          |               Frequency Printout                |
           -------------------------------------------------
 projected vibrational frequencies (cm-1)
eigval :       -0.00    -0.00    -0.00    -0.00    -0.00     0.00
eigval :     1250.60  1614.07  1614.17  3357.82  3399.23  3399.29
 reduced masses (amu)
   1:  1.52   2:  1.80   3:  6.24   4:  8.36   5: 10.56   6: 10.67   7:  3.07   8:  1.79
   9:  1.79  10:  1.25  11:  2.01  12:  2.01
 IR intensities (amu)
   1:  0.28   2:  0.32   3:  0.28   4:  0.38   5:  0.27   6:  0.15   7:  0.64   8:  0.22
   9:  0.22  10:  0.07  11:  0.03  12:  0.03
 Raman intensities (amu)
   1:  0.00   2:  0.00   3:  0.00   4:  0.00   5:  0.00   6:  0.00   7:  0.00   8:  0.00
   9:  0.00  10:  0.00  11:  0.00  12:  0.00
 output can be read by thermo (or use thermo option).
 writing <g98.out> molden fake output.
 recommended (thermochemical) frequency scaling factor: 1.0
           -------------------------------------------------
          |             Thermodynamic Functions             |
           -------------------------------------------------

Molecule has the following symmetry elements: (C3) 3*(sigma) 
It seems to be the C3v point group
c3v symmetry found (for desy threshold:  0.10E+00) used in thermo

          ...................................................
          :                      SETUP                      :
          :.................................................:
          :  # frequencies                           6      :
          :  # imaginary freq.                       0      :
          :  linear?                             false      :
          :  only rotor calc.                    false      :
          :  symmetry                              c3v      :
          :  rotational number                       3      :
          :  scaling factor                  1.0000000      :
          :  rotor cutoff                   50.0000000 cm⁻¹ :
          :  imag. cutoff                  -20.0000000 cm⁻¹ :
          :.................................................:

    mode    ω/cm⁻¹     T·S(HO)/kcal·mol⁻¹    T·S(FR)/kcal·mol⁻¹   T·S(vib)
   ------------------------------------------------------------------------
   ------------------------------------------------------------------------

   temp. (K)  partition function   enthalpy   heat capacity  entropy
                                   cal/mol     cal/K/mol   cal/K/mol   J/K/mol
 298.15  VIB   1.00                   12.406      0.274      0.048
         ROT   71.6                  888.752      2.981     11.469
         INT   71.9                  901.158      3.255     11.517
         TR   0.680E+26             1481.254      4.968     34.426
         TOT                        2382.4121     8.2232    45.9433   192.2266

       T/K    H(0)-H(T)+PV         H(T)/Eh          T*S/Eh         G(T)/Eh
   ------------------------------------------------------------------------
    298.15    0.379662E-02    0.371380E-01    0.218291E-01    0.153089E-01
   ------------------------------------------------------------------------

         :::::::::::::::::::::::::::::::::::::::::::::::::::::
         ::                  THERMODYNAMIC                  ::
         :::::::::::::::::::::::::::::::::::::::::::::::::::::
         :: total free energy          -4.410723369584 Eh   ::
         ::.................................................::
         :: total energy               -4.426032275489 Eh   ::
         :: zero point energy           0.033341412275 Eh   ::
         :: G(RRHO) w/o ZPVE           -0.018032506371 Eh   ::
         :: G(RRHO) contrib.            0.015308905905 Eh   ::
         :::::::::::::::::::::::::::::::::::::::::::::::::::::

           -------------------------------------------------
          | TOTAL ENERGY               -4.426032275489 Eh   |
          | TOTAL ENTHALPY             -4.388894247906 Eh   |
          | TOTAL FREE ENERGY          -4.410723369584 Eh   |
          | GRADIENT NORM               0.011531367426 Eh/α |
          | HOMO-LUMO GAP              12.281002183339 eV   |
           -------------------------------------------------

########################################################################
# WARNING! Some non-fatal runtime exceptions were caught, please check:
#  - Hessian on incompletely optimized geometry!
########################################################################


------------------------------------------------------------------------
 * finished run on 2022/08/16 at 10:50:03.288     
------------------------------------------------------------------------
 total:
 * wall-time:     0 d,  0 h,  0 min,  0.078 sec
 *  cpu-time:     0 d,  0 h,  0 min,  0.394 sec
 * ratio c/w:     5.050 speedup
 SCF:
 * wall-time:     0 d,  0 h,  0 min,  0.003 sec
 *  cpu-time:     0 d,  0 h,  0 min,  0.014 sec
 * ratio c/w:     5.494 speedup
 numerical hessian:
 * wall-time:     0 d,  0 h,  0 min,  0.036 sec
 *  cpu-time:     0 d,  0 h,  0 min,  0.204 sec
 * ratio c/w:     5.638 speedup

