[Molden Format]
[Title]
[Atoms] AU
V      1    23 -0.29385088759359E+00  0.41766090863312E+01  0.19049976480861E+00
F      2     9 -0.22375363131589E+01  0.30245807895873E+01 -0.19589086064066E+01
F      3     9 -0.72014950375243E+00  0.15366615927083E+01  0.17951400210258E+01
F      4     9  0.24176882651659E+01  0.44939430238205E+01  0.16977285558870E+01
F      5     9  0.89920755043185E+00  0.59809722704348E+01 -0.20556306610138E+01
F      6     9 -0.21142001754064E+01  0.61571844053723E+01  0.17114268871218E+01
[GTO]
           1 0
 d           3   1.00000000000000     
   1.46460111354144       0.541289269380067     
  0.459227846414705       0.246584099394188     
  0.178880564004989       3.285310212979427E-002
 s           4   1.00000000000000     
  0.620292328285123      -5.582646320423134E-002
  0.318202693131201      -8.591824705220233E-002
  9.721032919384519E-002  0.110551834768339     
  5.412501888606512E-002  2.813397944339200E-002
 p           4   1.00000000000000     
   1.31333209181317      -1.209486867993664E-002
  0.380783281880219      -2.563900016215085E-002
  6.645953291714139E-002  3.103120358203114E-002
  3.261115169061254E-002  8.134410154093333E-003
 
           2 0
 s           4   1.00000000000000     
   67.8191594740697      -0.201850789245403     
   11.6790204412661      -0.246385510808000     
  0.938459125048083       0.394518855091218     
  0.357670001280168       0.157234426148285     
 p           4   1.00000000000000     
   9.58240403549692        1.37296780219284     
   2.48457427772447        1.27052889614703     
  0.875889317934415       0.666458841672068     
  0.348706630431394       0.100543312761176     
 
           3 0
 s           4   1.00000000000000     
   67.8191594740697      -0.201850789245403     
   11.6790204412661      -0.246385510808000     
  0.938459125048083       0.394518855091218     
  0.357670001280168       0.157234426148285     
 p           4   1.00000000000000     
   9.58240403549692        1.37296780219284     
   2.48457427772447        1.27052889614703     
  0.875889317934415       0.666458841672068     
  0.348706630431394       0.100543312761176     
 
           4 0
 s           4   1.00000000000000     
   67.8191594740697      -0.201850789245403     
   11.6790204412661      -0.246385510808000     
  0.938459125048083       0.394518855091218     
  0.357670001280168       0.157234426148285     
 p           4   1.00000000000000     
   9.58240403549692        1.37296780219284     
   2.48457427772447        1.27052889614703     
  0.875889317934415       0.666458841672068     
  0.348706630431394       0.100543312761176     
 
           5 0
 s           4   1.00000000000000     
   67.8191594740697      -0.201850789245403     
   11.6790204412661      -0.246385510808000     
  0.938459125048083       0.394518855091218     
  0.357670001280168       0.157234426148285     
 p           4   1.00000000000000     
   9.58240403549692        1.37296780219284     
   2.48457427772447        1.27052889614703     
  0.875889317934415       0.666458841672068     
  0.348706630431394       0.100543312761176     
 
           6 0
 s           4   1.00000000000000     
   67.8191594740697      -0.201850789245403     
   11.6790204412661      -0.246385510808000     
  0.938459125048083       0.394518855091218     
  0.357670001280168       0.157234426148285     
 p           4   1.00000000000000     
   9.58240403549692        1.37296780219284     
   2.48457427772447        1.27052889614703     
  0.875889317934415       0.666458841672068     
  0.348706630431394       0.100543312761176     
 
[MO]
Sym=     1a
Ene=  -0.971145197377525     
Spin= Alpha
Occup=     2.00000000
           1 -2.423900516381586E-004
           2 -1.373701082517600E-003
           3  1.616091134155758E-003
           4  7.681708642441123E-003
           5  5.905625533028679E-003
           6 -6.430428279681434E-003
           7 -0.357382945026836     
           8  1.689885137923124E-002
           9 -1.839425163464830E-002
          10 -1.409509253933286E-002
          11 -0.286505897114328     
          12 -5.652321940590860E-003
          13 -4.594619618400553E-003
          14 -7.698312973506496E-003
          15 -0.286453696815098     
          16 -6.613546762934422E-004
          17 -9.501849733528876E-003
          18  4.664884236871997E-003
          19 -0.286510221413522     
          20  9.672445483996995E-003
          21  2.368750404547774E-004
          22  4.342754363843157E-003
          23 -0.286545174150710     
          24  4.665452699535030E-003
          25  5.128614087352303E-003
          26 -8.017096248113791E-003
          27 -0.432622316472228     
          28 -3.333653616087371E-003
          29  3.624948151916571E-003
          30  2.782834232463183E-003
Sym=     2a
Ene=  -0.904602779315567     
Spin= Alpha
Occup=     2.00000000
           1 -1.132278407723857E-003
           2 -6.544116903779369E-003
           3  7.676395311503226E-003
           4  3.666824890578633E-002
           5  2.814773144857368E-002
           6 -3.064109555959218E-002
           7  5.689587737785139E-002
           8  9.825164590755266E-002
           9 -0.106470913503683     
          10 -8.207896506309230E-002
          11  0.243018756579015     
          12  4.136257767689291E-003
          13 -3.889257831677144E-003
          14 -2.763500143822718E-003
          15  0.242435574804313     
          16  3.861104038593753E-003
          17 -3.612644953004529E-003
          18 -3.455683117301208E-003
          19  0.243790719198434     
          20  3.277691330792061E-003
          21 -4.154079911608152E-003
          22 -3.438197476477395E-003
          23  0.244275126197947     
          24  3.561599352577050E-003
          25 -4.426459864558555E-003
          26 -2.738876731737598E-003
          27 -0.751771422609948     
          28  1.435285576526635E-002
          29 -1.560094815079459E-002
          30 -1.199690766615630E-002
Sym=     3a
Ene=  -0.899548493640158     
Spin= Alpha
Occup=     2.00000000
           1  6.784698949231344E-003
           2  6.309656454298579E-003
           3 -1.309435540352992E-002
           4 -7.575336454555611E-003
           5  5.793433762689262E-003
           6 -7.043394493260721E-003
           7  5.865378786534037E-005
           8  7.715183188277616E-002
           9 -6.616323295201257E-002
          10  0.178301366269891     
          11 -0.454918932863496     
          12  3.818636045368042E-003
          13 -4.626549065655104E-003
          14  6.386942695739718E-003
          15  0.426224991736504     
          16  2.680436819073349E-003
          17 -9.449270615028236E-004
          18  8.366539414558801E-003
          19  0.455304343658860     
          20  1.376395161943023E-003
          21 -1.985246787572667E-003
          22  8.429670183601251E-003
          23 -0.425961082540607     
          24  4.954812573039435E-003
          25 -3.440296016297677E-003
          26  6.468529922686734E-003
          27 -4.013736314145871E-004
          28  3.855224486918804E-003
          29 -3.307395151499076E-003
          30  8.889983537210521E-003
Sym=     4a
Ene=  -0.899520906894236     
Spin= Alpha
Occup=     2.00000000
           1 -1.290696594052148E-002
           2  1.366075391865994E-002
           3 -7.537879781384647E-004
           4  9.131769427434513E-004
           5  6.800453339433572E-003
           6  5.432863521770105E-003
           7  1.016768322118333E-004
           8 -0.146692336945615     
           9 -0.143129675273076     
          10  1.036765150556061E-002
          11  0.426414878137220     
          12 -6.987449770259884E-003
          13 -5.035636800011382E-003
          14  2.108785039223659E-003
          15  0.455624826111031     
          16 -7.596679259879421E-003
          17 -4.325409788470581E-003
          18  7.259657713198254E-004
          19 -0.425835976556436     
          20 -4.695068096489338E-003
          21 -7.505671373870454E-003
          22  1.987410053550841E-004
          23 -0.454654797545381     
          24 -5.175471693062148E-003
          25 -6.992613663108622E-003
          26 -1.309297336969301E-003
          27 -1.119737271623542E-003
          28 -7.304536587071400E-003
          29 -7.162259937474193E-003
          30  5.030924234735798E-004
Sym=     5a
Ene=  -0.859817402455201     
Spin= Alpha
Occup=     2.00000000
           1  5.929600022671882E-002
           2 -5.475773063717693E-002
           3 -4.538269589541882E-003
           4 -1.287237075820171E-003
           5  8.360457310318457E-002
           6  8.083723533300258E-002
           7 -5.513077015975600E-006
           8 -2.178003640646336E-005
           9 -7.193934204505421E-006
          10 -2.008770790112184E-005
          11  0.463628160568788     
          12 -1.277680299064079E-002
          13 -7.215088224608571E-003
          14 -1.367898281666734E-002
          15 -0.463454645659123     
          16  2.972441096148156E-003
          17  1.679018897817389E-002
          18 -1.052866254962310E-002
          19  0.463376084822440     
          20  1.727335779712980E-002
          21  2.288584009885603E-003
          22  9.904258324431021E-003
          23 -0.463614458287064     
          24 -7.498106859744978E-003
          25 -1.189924785209887E-002
          26  1.430627997371048E-002
          27  3.965833504627872E-005
          28 -3.440298185572301E-006
          29  5.152756762375090E-007
          30  7.059314041642169E-007
Sym=     6a
Ene=  -0.615376017926734     
Spin= Alpha
Occup=     2.00000000
           1  0.162170054037480     
           2  0.122169852385047     
           3 -0.284339906422527     
           4 -0.166583001755767     
           5  0.118202598812317     
           6 -0.159648147516291     
           7 -1.773302885690775E-005
           8 -2.831696953638300E-002
           9  1.959933247941502E-002
          10 -5.934162238298515E-002
          11 -5.555110591179017E-003
          12 -0.164752314181321     
          13  9.282714990490074E-002
          14  3.475601962912060E-002
          15  4.703543626100973E-003
          16  0.102732652668495     
          17 -4.371060458897066E-002
          18 -0.117330096638975     
          19  5.554321926811557E-003
          20  3.974796363344288E-002
          21 -0.129628669450960     
          22 -0.136146908181002     
          23 -4.668824366686377E-003
          24 -6.952131842051400E-002
          25  0.144045653048138     
          26  2.674390406204152E-002
          27  1.282589556033232E-005
          28 -0.293109501455031     
          29  0.202902822604003     
          30 -0.614751794631330     
Sym=     7a
Ene=  -0.615372128891764     
Spin= Alpha
Occup=     2.00000000
           1 -0.273380862985390     
           2  0.304854524481344     
           3 -3.147366149595390E-002
           4  9.868175262593053E-003
           5  0.153785852292473     
           6  0.111311097363298     
           7  6.120411434601488E-006
           8  4.766264802897899E-002
           9  4.890883504895462E-002
          10 -6.573087814054539E-003
          11  4.703675158393713E-003
          12  0.139788806685535     
          13 -7.515385422726467E-002
          14 -3.188787995847422E-002
          15  5.577872694999808E-003
          16  0.125726153225876     
          17 -5.062549795747105E-002
          18 -0.136100365377906     
          19 -4.677319127775017E-003
          20 -3.250971507413434E-002
          21  0.112202109444644     
          22  0.112379865604886     
          23 -5.556393579704389E-003
          24 -7.894995881221527E-002
          25  0.171808717613941     
          26  3.445507745124551E-002
          27  1.466742668440690E-005
          28  0.493863413952529     
          29  0.506566442304236     
          30 -6.825818580261188E-002
Sym=     8a
Ene=  -0.610741564192807     
Spin= Alpha
Occup=     2.00000000
           1 -0.152621021531349     
           2 -0.132702599206260     
           3  0.285323620737609     
           4 -0.268580614873624     
           5  0.141274129379011     
           6 -0.125001297978424     
           7 -7.361276032341994E-004
           8 -4.262339186584101E-004
           9  4.137737444252197E-004
          10  3.693669061143359E-004
          11  2.849308923919533E-004
          12  9.548214627100658E-002
          13  0.265447779192809     
          14 -0.229396804667023     
          15  3.397846827556841E-004
          16  0.276665352214505     
          17  8.751316259326082E-002
          18  0.218910841755658     
          19  3.777352906120366E-004
          20 -9.628243446168222E-002
          21 -0.264355048836356     
          22  0.230493905023511     
          23  3.229363968608260E-004
          24 -0.277951849217663     
          25 -8.666966079961798E-002
          26 -0.218071803650837     
          27  7.206805499629456E-004
          28 -3.905725319282165E-003
          29  3.711078164320896E-003
          30  2.924927446504779E-003
Sym=     9a
Ene=  -0.610600499923230     
Spin= Alpha
Occup=     2.00000000
           1 -4.269264041075190E-003
           2 -3.006678219012161E-002
           3  3.433604623119680E-002
           4  0.176120848423220     
           5  0.132586793895609     
           6 -0.144533179259381     
           7 -9.167378743321729E-002
           8 -5.363173987213421E-002
           9  5.834749001441790E-002
          10  4.482098220563596E-002
          11  4.689948525616860E-002
          12 -0.161361567547655     
          13  3.904989183688314E-002
          14 -1.855441747362398E-002
          15  4.690283277310509E-002
          16 -0.100612187094840     
          17 -2.052058438294752E-002
          18  0.131830787567308     
          19  4.691729113771911E-002
          20  3.066333229516737E-002
          21  0.103265164428302     
          22  0.127813430645494     
          23  4.691569664586982E-002
          24 -3.011353513259978E-002
          25  0.162750954414934     
          26 -2.261766107824580E-002
          27  9.538975494831563E-002
          28 -0.480761676755119     
          29  0.522738993225504     
          30  0.401773047935288     
Sym=    10a
Ene=  -0.596681860818762     
Spin= Alpha
Occup=     2.00000000
           1  4.308520621888326E-003
           2  2.477291474016207E-002
           3 -2.908143536205040E-002
           4 -0.139401702105216     
           5 -0.107010041364129     
           6  0.116401055988968     
           7 -6.407629123597015E-002
           8  6.349562586703475E-002
           9 -6.910577901160286E-002
          10 -5.308195746534390E-002
          11  7.977179098177602E-002
          12 -1.172270070100093E-002
          13 -0.284770410105254     
          14 -0.333879758952263     
          15  7.977074000548375E-002
          16  0.126467904119679     
          17 -0.420156914955347     
          18  8.024622848548667E-003
          19  7.977743243635950E-002
          20  0.412339671347334     
          21 -0.151165968081489     
          22 -8.861399266974906E-004
          23  7.974658301668487E-002
          24  0.273955245081012     
          25 -1.561810711772751E-002
          26 -0.342788044195813     
          27  5.770912974190007E-002
          28 -9.180393574718090E-002
          29  0.100105438186722     
          30  7.667844140103434E-002
Sym=    11a
Ene=  -0.585821474701172     
Spin= Alpha
Occup=     2.00000000
           1  9.624120806091636E-006
           2  1.228755387400188E-003
           3 -1.238379508206280E-003
           4 -5.583187285694719E-003
           5 -4.015129824416847E-003
           6  4.574067621174752E-003
           7 -4.638551607852440E-002
           8 -4.427855225614041E-002
           9  4.812620761822824E-002
          10  3.700729039112195E-002
          11  5.657633665134866E-002
          12 -0.425885547711567     
          13  7.641532415363499E-002
          14 -8.995948675120315E-002
          15  5.646577567721097E-002
          16 -0.245952627441682     
          17 -9.852592314806981E-002
          18  0.352645846335471     
          19  5.663148481960729E-002
          20  0.124772721639133     
          21  0.250397129805709     
          22  0.342876044198067     
          23  5.674076958605233E-002
          24 -5.489764102782069E-002
          25  0.427743603372738     
          26 -0.102551930536370     
          27 -2.636633851856166E-002
          28  0.233609376009350     
          29 -0.255552525990548     
          30 -0.194998007883016     
Sym=    12a
Ene=  -0.583879074246282     
Spin= Alpha
Occup=     2.00000000
           1 -5.525722750663306E-002
           2 -6.056148490510274E-002
           3  0.115818712411736     
           4  6.691123516918865E-002
           5 -5.344704068799144E-002
           6  6.027357854565974E-002
           7 -7.958729831946114E-005
           8 -9.560473763418566E-003
           9  9.646499339462232E-003
          10 -2.379277697981360E-002
          11 -4.410454825644643E-002
          12  0.385745478330209     
          13  0.174954548785857     
          14 -4.360255627424620E-002
          15  4.487754923911959E-002
          16 -0.359690646785316     
          17 -0.202058081124931     
          18  0.115319399073129     
          19  4.428112992491263E-002
          20  0.225428050284831     
          21  0.350919294333831     
          22  9.153199574258160E-002
          23 -4.474139851376448E-002
          24 -0.195977964000029     
          25 -0.379422482985709     
          26 -2.163852081810912E-002
          27 -2.838929861636493E-005
          28 -0.149616993164966     
          29  0.150686069966994     
          30 -0.376308026185970     
Sym=    13a
Ene=  -0.583865674329248     
Spin= Alpha
Occup=     2.00000000
           1  0.116291381971084     
           2 -0.118556579222607     
           3  2.265197251522725E-003
           4 -1.027320912055065E-002
           5 -5.776214623731346E-002
           6 -5.105884201918871E-002
           7 -1.141507854070321E-004
           8  1.991095231681653E-002
           9  1.885018492354171E-002
          10 -3.740989034545660E-004
          11  4.498279576979500E-002
          12 -0.255776576450299     
          13  0.198365217261012     
          14 -0.281288252377168     
          15  4.426459971152057E-002
          16  3.273650283461425E-002
          17 -7.649112853853175E-002
          18  0.418800947765302     
          19 -4.462237199396887E-002
          20 -9.082578206407477E-002
          21  2.052905415707891E-002
          22 -0.416968739317195     
          23 -4.413616490483652E-002
          24  0.194425018369072     
          25 -0.251426574441499     
          26  0.283080310314283     
          27 -6.141905366883750E-005
          28  0.315835124121006     
          29  0.294896718268833     
          30 -7.440868261942519E-003
Sym=    14a
Ene=  -0.580654551736369     
Spin= Alpha
Occup=     2.00000000
           1  0.120513687299551     
           2 -0.111374352464300     
           3 -9.139334835250456E-003
           4 -2.586739764535420E-003
           5  0.169741622894139     
           6  0.164218897755010     
           7 -5.613879095381077E-006
           8 -4.418838398994165E-006
           9 -2.215304653396133E-005
          10  3.023803927997902E-006
          11 -8.552997254728865E-002
          12  0.138860195034796     
          13  0.246385939559336     
          14  0.343597715923105     
          15  8.556022183385935E-002
          16  4.576489504332881E-002
          17 -0.428185719276598     
          18  0.114336184469789     
          19 -8.553425202385408E-002
          20 -0.428615890596703     
          21  6.782119229327550E-002
          22 -0.102156513931088     
          23  8.554560572070879E-002
          24  0.243271514902080     
          25  0.113066555277510     
          26 -0.355682766355279     
          27  2.649736704097981E-006
          28  1.697908155272827E-004
          29  3.354799472997317E-004
          30 -2.625389532035924E-004
Sym=    15a
Ene=  -0.572705900078115     
Spin= Alpha
Occup=     2.00000000
           1  3.926076421370255E-002
           2  2.876644763660215E-002
           3 -6.802721185030471E-002
           4 -3.988771839898538E-002
           5  2.817307944299248E-002
           6 -3.824067037439746E-002
           7 -1.242430858972521E-005
           8 -9.142264785769015E-003
           9  6.170882076251194E-003
          10 -1.897298750569258E-002
          11 -1.053071048061456E-002
          12 -8.365146852903922E-002
          13  0.443341779294680     
          14  0.142058181544703     
          15  8.789754218354240E-003
          16 -2.410599810030605E-002
          17 -0.354327243276510     
          18 -0.250092393213964     
          19  1.044976567130299E-002
          20  0.391031371077630     
          21 -7.374985129941565E-002
          22 -0.255560615007789     
          23 -8.681297091028332E-003
          24 -0.419596732439701     
          25  7.693219555277014E-002
          26  8.035767580133593E-002
          27  1.617929206125286E-006
          28  0.168052482622129     
          29 -0.113545122271347     
          30  0.348986969264210     
Sym=    16a
Ene=  -0.572692812794839     
Spin= Alpha
Occup=     2.00000000
           1 -6.511106668407199E-002
           2  7.307626011933595E-002
           3 -7.965193435263964E-003
           4  2.064214967991312E-003
           5  3.690714292377115E-002
           6  2.643973798800381E-002
           7 -4.624271788272012E-006
           8  1.523192349109893E-002
           9  1.565758519687752E-002
          10 -2.241031268922603E-003
          11  8.759705784986922E-003
          12  0.183721176995498     
          13 -5.628873816477183E-002
          14 -0.389396287981035     
          15  1.051258009282190E-002
          16  0.365129656013789     
          17 -0.301208001336169     
          18  8.892931414168869E-003
          19 -8.741294087702483E-003
          20 -0.212091245934883     
          21  0.374622340564496     
          22 -5.861138822769598E-002
          23 -1.048788062441934E-002
          24 -0.110240966803486     
          25  0.215994510719656     
          26  0.405686853148728     
          27  2.431805936816966E-005
          28 -0.279243779868942     
          29 -0.288098673618135     
          30  4.086047248645067E-002
Sym=    17a
Ene=  -0.563996744896536     
Spin= Alpha
Occup=     2.00000000
           1  2.654646778408844E-002
           2 -2.456845064721774E-002
           3 -1.978017136870704E-003
           4 -5.431074459616488E-004
           5  3.742749010352425E-002
           6  3.623703392193516E-002
           7 -7.236005487042389E-007
           8 -6.552391400279958E-005
           9 -6.296213994134959E-005
          10  2.388407046937407E-005
          11 -8.304412241967761E-003
          12  0.452246240206560     
          13 -0.213151592211657     
          14 -5.382089889397212E-002
          15  8.153253517973741E-003
          16 -0.322325545493843     
          17  8.317674735119117E-002
          18  0.376847403865340     
          19 -8.160822548090823E-003
          20  5.170393369212928E-002
          21 -0.338168756859398     
          22 -0.368032234870590     
          23  8.325528993313945E-003
          24 -0.184194491205601     
          25  0.465415525797067     
          26  4.583364123945306E-002
          27 -9.776320974594269E-006
          28 -9.746959563628174E-005
          29  4.072794207241543E-005
          30 -1.380455793787660E-004
Sym=    18a
Ene=  -0.561666639036890     
Spin= Alpha
Occup=     2.00000000
           1 -1.610269052523516E-002
           2 -1.630854547462501E-002
           3  3.241123599986017E-002
           4  1.872493101350118E-002
           5 -1.459068590061474E-002
           6  1.710292126352029E-002
           7 -6.009382152682663E-007
           8  1.779816114056411E-002
           9 -1.656576221699423E-002
          10  4.287540133372945E-002
          11  4.255493301741589E-002
          12  7.818529936648912E-002
          13 -8.258174203164449E-002
          14  0.489304439261213     
          15 -4.148278062500761E-002
          16  0.267595456936547     
          17 -0.239393058987201     
          18  0.351056482298767     
          19 -4.256230005553520E-002
          20  0.245392250750611     
          21 -0.263906962217622     
          22  0.349728033810078     
          23  4.150467422960956E-002
          24  0.104997566541029     
          25 -6.227328882635347E-002
          26  0.487113687109053     
          27  3.344076518254486E-006
          28 -2.303454343093240E-002
          29  2.140894719543411E-002
          30 -5.545736025460028E-002
Sym=    19a
Ene=  -0.561635861593537     
Spin= Alpha
Occup=     2.00000000
           1  3.216827464745495E-002
           2 -3.339356183745631E-002
           3  1.225287190001356E-003
           4 -2.484939120882601E-003
           5 -1.661274993042094E-002
           6 -1.404833418841144E-002
           7 -1.569346551354588E-005
           8 -3.565892655714665E-002
           9 -3.403220854945490E-002
          10  1.647402006600889E-003
          11 -4.149693485041485E-002
          12 -0.262410840623240     
          13 -0.425931304683020     
          14 -3.803670527850154E-002
          15 -4.262532272112131E-002
          16 -0.271163249926532     
          17 -0.417716146792388     
          18 -6.932646651413671E-002
          19  4.159514770268215E-002
          20 -0.424158789982075     
          21 -0.250110811994046     
          22  9.999876212249201E-002
          23  4.258672532048190E-002
          24 -0.436584832295377     
          25 -0.236872774559382     
          26  7.196684410465702E-002
          27 -1.592376778353413E-006
          28  4.626411064070553E-002
          29  4.410204885196470E-002
          30 -2.131613146579732E-003
Sym=    20a
Ene=  -0.555149237418478     
Spin= Alpha
Occup=     2.00000000
           1 -1.086411310628447E-005
           2  1.627334211613772E-005
           3 -5.409229009853255E-006
           4  2.122656797697411E-005
           5  1.290071880974212E-004
           6  1.409633893401461E-004
           7  1.747437595036894E-008
           8  7.496137385867717E-005
           9  7.046477073988566E-005
          10 -2.045875255954902E-006
          11  1.108929543425403E-004
          12  0.136754468013498     
          13  0.372946989565060     
          14 -0.322122419124340     
          15  9.935495723504923E-005
          16 -0.389439996634945     
          17 -0.122590439410240     
          18 -0.305548497119030     
          19 -1.109193847348260E-004
          20 -0.134985270851905     
          21 -0.371787543113960     
          22  0.321831508406155     
          23 -9.936376070208146E-005
          24  0.390598014372213     
          25  0.124044576279234     
          26  0.305938439228546     
          27 -1.802752365878498E-010
          28 -1.270000603797608E-004
          29 -1.149711943959449E-004
          30 -2.204191594270840E-006
Sym=    21a
Ene=  -0.417597427969661     
Spin= Alpha
Occup=     0.00000000
           1  0.679367622230868     
           2 -0.808469747955823     
           3  0.129102125724955     
           4 -2.037233279864567E-002
           5 -0.403072939693087     
           6 -0.276001412085279     
           7 -1.378729578554064E-004
           8 -4.744329324141369E-002
           9 -5.075382707565565E-002
          10  9.456705289506718E-003
          11  6.337658197595779E-002
          12  0.239563248655170     
          13 -0.127664358261531     
          14  5.366081293019422E-003
          15  8.231757882383359E-002
          16  0.201354026481185     
          17 -4.302548313709905E-002
          18 -0.284514874946844     
          19 -6.339695914576499E-002
          20 -1.506753561200283E-002
          21  0.167579393432812     
          22  0.210996841849629     
          23 -8.231587363134305E-002
          24 -0.122197939284769     
          25  0.328041653551521     
          26  7.670662669747943E-003
          27  9.872934885930265E-005
          28  0.296044828612642     
          29  0.317139811808956     
          30 -5.893323860428737E-002
Sym=    22a
Ene=  -0.417564076306938     
Spin= Alpha
Occup=     0.00000000
           1  0.433694560057410     
           2  0.267758300741165     
           3 -0.701452860798575     
           4 -0.458650384468837     
           5  0.301920520206726     
           6 -0.437032030766403     
           7  9.561891021888054E-006
           8 -3.097376413414963E-002
           9  1.778723647534243E-002
          10 -6.030990418317096E-002
          11  8.222808797568776E-002
          12  0.322347614696091     
          13 -0.133797180120288     
          14 -2.049225860805067E-002
          15 -6.340522314057211E-002
          16 -0.202407187267339     
          17  1.815073793878407E-002
          18  0.181927440609272     
          19 -8.220114135239619E-002
          20 -5.015003722063489E-003
          21  0.257676612154014     
          22  0.238849017650911     
          23  6.339365536064777E-002
          24  8.359177779197312E-002
          25 -0.256115916681898     
          26 -1.432654761263485E-002
          27 -2.165999461590392E-005
          28  0.193401683248573     
          29 -0.111184298755020     
          30  0.376354502441183     
Sym=    23a
Ene=  -0.417255285505428     
Spin= Alpha
Occup=     0.00000000
           1  0.386673414597373     
           2  0.298770380300393     
           3 -0.685443794897766     
           4  0.601916184826273     
           5 -0.319294167513057     