      -----------------------------------------------------------      
     |                   =====================                   |     
     |                           x T B                           |     
     |                   =====================                   |     
     |                         S. Grimme                         |     
     |          Mulliken Center for Theoretical Chemistry        |     
     |                    University of Bonn                     |     
      -----------------------------------------------------------      

   * xtb version 6.5.0 (746241f) compiled by 'ehlert@majestix' on 2022-05-15

   xtb is free software: you can redistribute it and/or modify it under
   the terms of the GNU Lesser General Public License as published by
   the Free Software Foundation, either version 3 of the License, or
   (at your option) any later version.
   
   xtb is distributed in the hope that it will be useful,
   but WITHOUT ANY WARRANTY; without even the implied warranty of
   MERCHANTABILITY or FITNESS FOR A PARTICULAR PURPOSE.  See the
   GNU Lesser General Public License for more details.
   
   Cite this work as:
   * C. Bannwarth, E. Caldeweyher, S. Ehlert, A. Hansen, P. Pracht,
     J. Seibert, S. Spicher, S. Grimme, WIREs Comput. Mol. Sci., 2020, 11,
     e01493. DOI: 10.1002/wcms.1493
   
   for GFN2-xTB:
   * C. Bannwarth, S. Ehlert and S. Grimme., J. Chem. Theory Comput., 2019,
     15, 1652-1671. DOI: 10.1021/acs.jctc.8b01176
   for GFN1-xTB:
   * S. Grimme, C. Bannwarth, P. Shushkov, J. Chem. Theory Comput., 2017,
     13, 1989-2009. DOI: 10.1021/acs.jctc.7b00118
   for GFN0-xTB:
   * P. Pracht, E. Caldeweyher, S. Ehlert, S. Grimme, ChemRxiv, 2019, preprint.
     DOI: 10.26434/chemrxiv.8326202.v1
   for GFN-FF:
   * S. Spicher and S. Grimme, Angew. Chem. Int. Ed., 2020, 59, 15665-15673.
     DOI: 10.1002/anie.202004239
   
   for ALPB and GBSA implicit solvation:
   * S. Ehlert, M. Stahn, S. Spicher, S. Grimme, J. Chem. Theory Comput.,
     2021, 17, 4250-4261. DOI: 10.1021/acs.jctc.1c00471
   
   for DFT-D4:
   * E. Caldeweyher, C. Bannwarth and S. Grimme, J. Chem. Phys., 2017,
     147, 034112. DOI: 10.1063/1.4993215
   * E. Caldeweyher, S. Ehlert, A. Hansen, H. Neugebauer, S. Spicher,
     C. Bannwarth and S. Grimme, J. Chem. Phys., 2019, 150, 154122.
     DOI: 10.1063/1.5090222
   * E. Caldeweyher, J.-M. Mewes, S. Ehlert and S. Grimme, Phys. Chem. Chem. Phys.
     2020, 22, 8499-8512. DOI: 10.1039/D0CP00502A
   
   for sTDA-xTB:
   * S. Grimme and C. Bannwarth, J. Chem. Phys., 2016, 145, 054103.
     DOI: 10.1063/1.4959605
   
   in the mass-spec context:
   * V. Asgeirsson, C. Bauer and S. Grimme, Chem. Sci., 2017, 8, 4879.
     DOI: 10.1039/c7sc00601b
   * J. Koopman and S. Grimme, ACS Omega 2019, 4, 12, 15120-15133.
     DOI: 10.1021/acsomega.9b02011
   
   for metadynamics refer to:
   * S. Grimme, J. Chem. Theory Comput., 2019, 155, 2847-2862
     DOI: 10.1021/acs.jctc.9b00143
   
   for SPH calculations refer to:
   * S. Spicher and S. Grimme, J. Chem. Theory Comput., 2021, 17, 1701-1714
     DOI: 10.1021/acs.jctc.0c01306
   
   with help from (in alphabetical order)
   P. Atkinson, C. Bannwarth, F. Bohle, G. Brandenburg, E. Caldeweyher
   M. Checinski, S. Dohm, S. Ehlert, S. Ehrlich, I. Gerasimov, C. Hölzer
   A. Katbashev, J. Koopman, C. Lavigne, S. Lehtola, F. März, M. Müller,
   F. Musil, H. Neugebauer, J. Pisarek, C. Plett, P. Pracht, F. Pultar,
   J. Seibert, P. Shushkov, S. Spicher, M. Stahn, M. Steiner, T. Strunk,
   J. Stückrath, T. Rose, and J. Unsleber
   
 * started run on 2022/07/20 at 16:32:10.180     

           -------------------------------------------------
          |                Calculation Setup                |
           -------------------------------------------------

          program call               : xtb -c 0 -u 0 --opt --molden sp.xyz
          coordinate file            : sp.xyz
          omp threads                :                    16

   ID    Z sym.   atoms
    1   23 V      1
    2    9 F      2-6

           -------------------------------------------------
          |                 G F N 2 - x T B                 |
           -------------------------------------------------

        Reference                      10.1021/acs.jctc.8b01176
      * Hamiltonian:
        H0-scaling (s, p, d)           1.850000    2.230000    2.230000
        zeta-weighting                 0.500000
      * Dispersion:
        s8                             2.700000
        a1                             0.520000
        a2                             5.000000
        s9                             5.000000
      * Repulsion:
        kExp                           1.500000    1.000000
        rExp                           1.000000
      * Coulomb:
        alpha                          2.000000
        third order                    shell-resolved
        anisotropic                    true
        a3                             3.000000
        a5                             4.000000
        cn-shift                       1.200000
        cn-exp                         4.000000
        max-rad                        5.000000


          ...................................................
          :                      SETUP                      :
          :.................................................:
          :  # basis functions                  30          :
          :  # atomic orbitals                  29          :
          :  # shells                           13          :
          :  # electrons                        40          :
          :  max. iterations                   250          :
          :  Hamiltonian                  GFN2-xTB          :
          :  restarted?                      false          :
          :  GBSA solvation                  false          :
          :  PC potential                    false          :
          :  electronic temp.          300.0000000     K    :
          :  accuracy                    1.0000000          :
          :  -> integral cutoff          0.2500000E+02      :
          :  -> integral neglect         0.1000000E-07      :
          :  -> SCF convergence          0.1000000E-05 Eh   :
          :  -> wf. convergence          0.1000000E-03 e    :
          :  Broyden damping             0.4000000          :
          ...................................................

 iter      E             dE          RMSdq      gap      omega  full diag
   1    -20.3466435 -0.203466E+02  0.266E+01    0.20       0.0  T
   2    -22.1324323 -0.178579E+01  0.238E+01   17.40       1.0  T
   3    -23.5154317 -0.138300E+01  0.189E+01    7.23       1.0  T
   4    -23.4120627  0.103369E+00  0.192E+01    7.76       1.0  T
   5    -25.6103795 -0.219832E+01  0.864E+00    1.60       1.0  T
   6    -25.1058144  0.504565E+00  0.148E+01    0.73       1.0  T
   7    -25.1573032 -0.514888E-01  0.128E+01    0.67       1.0  T
   8    -24.3976063  0.759697E+00  0.152E+01    0.46       1.0  T
   9    -24.8606982 -0.463092E+00  0.123E+01    0.61       1.0  T
  10    -23.0202472  0.184045E+01  0.215E+01   10.38       1.0  T
  11    -24.9975436 -0.197730E+01  0.104E+01    2.84       1.0  T
  12    -24.8679992  0.129544E+00  0.113E+01    3.05       1.0  T
  13    -24.5503320  0.317667E+00  0.130E+01    3.83       1.0  T
  14    -24.5450869  0.524506E-02  0.131E+01    3.85       1.0  T
  15    -25.3908885 -0.845802E+00  0.659E+00    0.53       1.0  T
  16    -25.6650427 -0.274154E+00  0.320E+00    0.86       1.0  T
  17    -25.6911738 -0.261310E-01  0.203E+00    0.99       1.0  T
  18    -25.5905620  0.100612E+00  0.464E+00    1.61       1.0  T
  19    -25.7079661 -0.117404E+00  0.190E+00    1.14       1.0  T
  20    -25.6936937  0.142724E-01  0.252E+00    1.29       1.0  T
  21    -25.6933429  0.350842E-03  0.250E+00    1.30       1.0  T
  22    -25.7061004 -0.127575E-01  0.190E+00    1.23       1.0  T
  23    -25.7113489 -0.524852E-02  0.111E+00    1.21       1.0  T
  24    -25.7142832 -0.293424E-02  0.354E-01    1.16       1.0  T
  25    -25.7128156  0.146756E-02  0.523E-01    1.20       1.0  T
  26    -25.7130929 -0.277269E-03  0.463E-01    1.20       1.0  T
  27    -25.7139991 -0.906217E-03  0.254E-01    1.14       1.0  T
  28    -25.7143526 -0.353472E-03  0.136E-01    1.17       1.0  T
  29    -25.7140926  0.259989E-03  0.235E-01    1.18       1.0  T
  30    -25.7144026 -0.310046E-03  0.912E-02    1.17       1.0  T
  31    -25.7143995  0.310242E-05  0.941E-02    1.17       1.0  T
  32    -25.7143243  0.751777E-04  0.139E-01    1.18       1.0  T
  33    -25.7144472 -0.122854E-03  0.366E-02    1.17       1.1  T
  34    -25.7144532 -0.605648E-05  0.201E-02    1.17       2.0  T
  35    -25.7144521  0.115385E-05  0.234E-02    1.18       1.7  T
  36    -25.7144543 -0.221069E-05  0.164E-02    1.17       2.5  T
  37    -25.7144561 -0.179905E-05  0.120E-03    1.18      34.0  T
  38    -25.7144561 -0.570079E-08  0.696E-04    1.18      58.7  T
  39    -25.7144561  0.456154E-08  0.107E-03    1.18      38.1  T
  40    -25.7144561 -0.150856E-08  0.882E-04    1.18      46.3  T

   *** convergence criteria satisfied after 40 iterations ***

         #    Occupation            Energy/Eh            Energy/eV
      -------------------------------------------------------------
         1        2.0000           -0.9442109             -25.6933
       ...           ...                  ...                  ...
        14        2.0000           -0.5642099             -15.3529
        15        2.0000           -0.5631381             -15.3238
        16        2.0000           -0.5579354             -15.1822
        17        2.0000           -0.5578087             -15.1787
        18        2.0000           -0.5550303             -15.1031
        19        2.0000           -0.5493887             -14.9496
        20        2.0000           -0.5487183             -14.9314 (HOMO)
        21                         -0.5055236             -13.7560 (LUMO)
        22                         -0.4906438             -13.3511
        23                         -0.4886173             -13.2960
        24                         -0.4435575             -12.0698
        25                         -0.3342851              -9.0964
       ...                                ...                  ...
        29                          0.6442779              17.5317
      -------------------------------------------------------------
                  HL-Gap            0.0431948 Eh            1.1754 eV
             Fermi-level           -0.5269324 Eh          -14.3386 eV

 SCC (total)                   0 d,  0 h,  0 min,  0.016 sec
 SCC setup                      ...        0 min,  0.000 sec (  1.020%)
 Dispersion                     ...        0 min,  0.000 sec (  0.813%)
 classical contributions        ...        0 min,  0.000 sec (  0.735%)
 integral evaluation            ...        0 min,  0.000 sec (  2.539%)
 iterations                     ...        0 min,  0.015 sec ( 88.463%)
 molecular gradient             ...        0 min,  0.001 sec (  5.974%)
 printout                       ...        0 min,  0.000 sec (  0.382%)

         :::::::::::::::::::::::::::::::::::::::::::::::::::::
         ::                     SUMMARY                     ::
         :::::::::::::::::::::::::::::::::::::::::::::::::::::
         :: total energy             -25.709844675872 Eh    ::
         :: gradient norm              0.119017031309 Eh/a0 ::
         :: HOMO-LUMO gap              1.175390282602 eV    ::
         ::.................................................::
         :: SCC energy               -25.714456107961 Eh    ::
         :: -> isotropic ES            0.070635019180 Eh    ::
         :: -> anisotropic ES          0.001430773149 Eh    ::
         :: -> anisotropic XC         -0.000874781277 Eh    ::
         :: -> dispersion             -0.002413399755 Eh    ::
         :: repulsion energy           0.004610491186 Eh    ::
         :: add. restraining           0.000000000000 Eh    ::
         :: total charge               0.000000000133 e     ::
         :::::::::::::::::::::::::::::::::::::::::::::::::::::

      ----------------------------------------------------------- 
     |                   =====================                   |
     |                        A N C O P T                        |
     |                   =====================                   |
     |               Approximate Normal Coordinate               |
     |                Rational Function Optimizer                |
      ----------------------------------------------------------- 

          ...................................................
          :                      SETUP                      :
          :.................................................:
          :   optimization level            normal          :
          :   max. optcycles                   200          :
          :   ANC micro-cycles                  20          :
          :   degrees of freedom                12          :
          :.................................................:
          :   RF solver                   davidson          :
          :   write xtbopt.log                true          :
          :   linear?                        false          :
          :   energy convergence         0.5000000E-05 Eh   :
          :   grad. convergence          0.1000000E-02 Eh/α :
          :   maximium RF displ.         1.0000000          :
          :   Hlow (freq-cutoff)         0.1000000E-01      :
          :   Hmax (freq-cutoff)         5.0000000          :
          :   S6 in model hess.         20.0000000          :
          ...................................................

generating ANC from model Hessian ...
Using Lindh-Hessian (1995)
 Shifting diagonal of input Hessian by   0.000000000000000E+000
 Lowest  eigenvalues of input Hessian
    0.000000    0.000000    0.000000    0.000000    0.000000    0.000000
    0.010957    0.011070    0.020319    0.021577    0.029297    0.033381
    0.038129    0.253667    0.262776    0.468635    0.716094    0.894208
 Highest eigenvalues
    0.038129    0.253667    0.262776    0.468635    0.716094    0.894208
 

........................................................................
.............................. CYCLE    1 ..............................
........................................................................
   1    -25.7144561 -0.257145E+02  0.359E-04    1.18       0.0  T
   2    -25.7144561  0.225273E-07  0.168E-03    1.18      24.3  T
   3    -25.7144561 -0.232319E-07  0.188E-04    1.18     217.4  T
   4    -25.7144561  0.141753E-10  0.200E-04    1.18     204.4  T
     SCC iter.                  ...        0 min,  0.001 sec
     gradient                   ...        0 min,  0.001 sec
 * total energy  :   -25.7098447 Eh     change       -0.5390572E-08 Eh
   gradient norm :     0.1190196 Eh/α   predicted     0.0000000E+00 (-100.00%)
   displ. norm   :     0.6458884 α      lambda       -0.5899276E-01
   maximum displ.:     0.3892232 α      in ANC's #5, #9, #2, ...

........................................................................
.............................. CYCLE    2 ..............................
........................................................................
   1    -25.7672714 -0.257673E+02  0.430E+00    1.83       0.0  T
   2    -25.7158364  0.514350E-01  0.383E+00    1.49       1.0  T
   3    -25.5522974  0.163539E+00  0.532E+00    2.53       1.0  T
   4    -25.7658411 -0.213544E+00  0.953E-01    1.89       1.0  T
   5    -25.7681366 -0.229545E-02  0.608E-01    1.84       1.0  T
   6    -25.7699106 -0.177406E-02  0.291E-01    1.80       1.0  T
   7    -25.7703080 -0.397357E-03  0.879E-02    1.77       1.0  T
   8    -25.7703059  0.207145E-05  0.525E-02    1.77       1.0  T
   9    -25.7703141 -0.815292E-05  0.348E-02    1.77       1.2  T
  10    -25.7703210 -0.693518E-05  0.113E-03    1.77      36.1  T
  11    -25.7703210 -0.745591E-08  0.280E-04    1.77     145.7  T
  12    -25.7703210 -0.671463E-10  0.149E-04    1.77     273.9  T
     SCC iter.                  ...        0 min,  0.002 sec
     gradient                   ...        0 min,  0.001 sec
 * total energy  :   -25.7619141 Eh     change       -0.5206940E-01 Eh
   gradient norm :     0.1078438 Eh/α   predicted    -0.4180144E-01 ( -19.72%)
   displ. norm   :     0.8200724 α      lambda       -0.8586545E-01
   maximum displ.:     0.7181910 α      in ANC's #9, #5, #10, ...

........................................................................
.............................. CYCLE    3 ..............................
........................................................................
   1    -25.8509340 -0.258509E+02  0.405E+00    3.20       0.0  T
   2    -25.8146789  0.362550E-01  0.334E+00    2.64       1.0  T
   3    -25.7914378  0.232411E-01  0.334E+00    3.54       1.0  T
   4    -25.8584012 -0.669634E-01  0.481E-01    3.04       1.0  T
   5    -25.8585026 -0.101313E-03  0.177E-01    3.04       1.0  T
   6    -25.8585906 -0.880376E-04  0.802E-02    3.02       1.0  T
   7    -25.8585893  0.131709E-05  0.451E-02    3.02       1.0  T
   8    -25.8586008 -0.115133E-04  0.171E-02    3.02       2.4  T
   9    -25.8586022 -0.137706E-05  0.391E-03    3.02      10.4  T
  10    -25.8586022 -0.452221E-07  0.373E-04    3.02     109.6  T
  11    -25.8586022 -0.716579E-09  0.297E-05    3.02    1373.2  T
     SCC iter.                  ...        0 min,  0.002 sec
     gradient                   ...        0 min,  0.001 sec
 * total energy  :   -25.8234321 Eh     change       -0.6151798E-01 Eh
   gradient norm :     0.0381772 Eh/α   predicted    -0.7180579E-01 (  16.72%)
   displ. norm   :     0.6622710 α      lambda       -0.1978570E-01
   maximum displ.:     0.5650654 α      in ANC's #2, #9, #7, ...

........................................................................
.............................. CYCLE    4 ..............................
........................................................................
   1    -25.8827500 -0.258828E+02  0.378E+00    3.95       0.0  T
   2    -25.8820067  0.743298E-03  0.307E+00    3.62       1.0  T
   3    -25.8524248  0.295819E-01  0.221E+00    4.22       1.0  T
   4    -25.8755366 -0.231118E-01  0.130E+00    3.65       1.0  T
   5    -25.8850920 -0.955539E-02  0.727E-02    3.78       1.0  T
   6    -25.8851111 -0.191067E-04  0.383E-02    3.78       1.1  T
   7    -25.8851130 -0.190923E-05  0.444E-03    3.78       9.2  T
   8    -25.8851131 -0.106119E-06  0.161E-03    3.78      25.3  T
   9    -25.8851131 -0.773937E-08  0.581E-04    3.78      70.2  T
  10    -25.8851131 -0.134292E-08  0.841E-05    3.78     485.4  T
     SCC iter.                  ...        0 min,  0.002 sec
     gradient                   ...        0 min,  0.001 sec
 * total energy  :   -25.8281501 Eh     change       -0.4718059E-02 Eh
   gradient norm :     0.0386268 Eh/α   predicted    -0.1423188E-01 ( 201.65%)
   displ. norm   :     0.3076240 α      lambda       -0.8093142E-02
   maximum displ.:     0.2034338 α      in ANC's #3, #5, #2, ...

........................................................................
.............................. CYCLE    5 ..............................
........................................................................
   1    -25.8736336 -0.258736E+02  0.130E+00    3.55       0.0  T
   2    -25.8741506 -0.516957E-03  0.116E+00    3.59       1.0  T
   3    -25.8745257 -0.375170E-03  0.776E-01    3.51       1.0  T
   4    -25.8699579  0.456787E-02  0.906E-01    3.71       1.0  T
   5    -25.8752274 -0.526948E-02  0.456E-02    3.57       1.0  T
   6    -25.8752283 -0.924426E-06  0.204E-02    3.57       2.0  T
   7    -25.8752283 -0.349845E-07  0.957E-03    3.57       4.3  T
   8    -25.8752285 -0.185107E-06  0.713E-04    3.57      57.2  T
   9    -25.8752285 -0.246054E-09  0.171E-04    3.57     239.2  T
     SCC iter.                  ...        0 min,  0.001 sec
     gradient                   ...        0 min,  0.001 sec
 * total energy  :   -25.8288903 Eh     change       -0.7402027E-03 Eh
   gradient norm :     0.0231611 Eh/α   predicted    -0.4429508E-02 ( 498.42%)
   displ. norm   :     0.3467053 α      lambda       -0.6057700E-02
   maximum displ.:     0.3020211 α      in ANC's #3, #9, #5, ...

........................................................................
.............................. CYCLE    6 ..............................
........................................................................
   1    -25.8652889 -0.258653E+02  0.188E+00    3.36       0.0  T
   2    -25.8651649  0.123937E-03  0.111E+00    3.38       1.0  T
   3    -25.8583630  0.680191E-02  0.108E+00    3.23       1.0  T
   4    -25.8631948 -0.483176E-02  0.615E-01    3.47       1.0  T
   5    -25.8656467 -0.245189E-02  0.621E-02    3.37       1.0  T
   6    -25.8656476 -0.943442E-06  0.198E-02    3.37       2.1  T
   7    -25.8656479 -0.325645E-06  0.463E-03    3.37       8.8  T
   8    -25.8656481 -0.130081E-06  0.139E-03    3.37      29.4  T
   9    -25.8656481 -0.394966E-09  0.778E-05    3.37     524.7  T
  10    -25.8656481 -0.181295E-10  0.300E-05    3.37    1359.7  T
     SCC iter.                  ...        0 min,  0.002 sec
     gradient                   ...        0 min,  0.001 sec
 * total energy  :   -25.8285449 Eh     change        0.3454038E-03 Eh
   gradient norm :     0.0277435 Eh/α   predicted    -0.3392928E-02 (*******%)
   displ. norm   :     0.2230147 α      lambda       -0.5183855E-02
   maximum displ.:     0.1335068 α      in ANC's #9, #7, #5, ...

........................................................................
.............................. CYCLE    7 ..............................
........................................................................
   1    -25.8795167 -0.258795E+02  0.941E-01    3.79       0.0  T
   2    -25.8788568  0.659896E-03  0.821E-01    3.66       1.0  T
   3    -25.8784984  0.358405E-03  0.638E-01    3.81       1.0  T
   4    -25.8792764 -0.778004E-03  0.321E-01    3.69       1.0  T
   5    -25.8799559 -0.679507E-03  0.192E-02    3.73       2.1  T
   6    -25.8799559 -0.233222E-07  0.815E-03    3.73       5.0  T
   7    -25.8799560 -0.154713E-06  0.114E-03    3.73      35.7  T
   8    -25.8799560 -0.432138E-08  0.452E-04    3.73      90.3  T
   9    -25.8799560 -0.345217E-09  0.664E-05    3.73     614.6  T
     SCC iter.                  ...        0 min,  0.001 sec
     gradient                   ...        0 min,  0.000 sec
 * total energy  :   -25.8302980 Eh     change       -0.1753066E-02 Eh
   gradient norm :     0.0136353 Eh/α   predicted    -0.2720840E-02 (  55.20%)
   displ. norm   :     0.2562010 α      lambda       -0.2180722E-02
   maximum displ.:     0.1977210 α      in ANC's #2, #5, #3, ...

........................................................................
.............................. CYCLE    8 ..............................
........................................................................
   1    -25.8788137 -0.258788E+02  0.180E+00    3.71       0.0  T
   2    -25.8790976 -0.283952E-03  0.137E+00    3.73       1.0  T
   3    -25.8785998  0.497766E-03  0.358E-01    3.68       1.0  T
   4    -25.8781246  0.475243E-03  0.374E-01    3.79       1.0  T
   5    -25.8791663 -0.104168E-02  0.108E-02    3.72       3.8  T
   6    -25.8791663 -0.383753E-07  0.964E-03    3.72       4.2  T
   7    -25.8791663 -0.948761E-08  0.202E-03    3.72      20.2  T
   8    -25.8791663 -0.644288E-08  0.171E-04    3.72     238.6  T
   9    -25.8791663 -0.402167E-11  0.278E-05    3.72    1468.9  T
     SCC iter.                  ...        0 min,  0.001 sec
     gradient                   ...        0 min,  0.001 sec
 * total energy  :   -25.8305258 Eh     change       -0.2278228E-03 Eh
   gradient norm :     0.0106817 Eh/α   predicted    -0.1161932E-02 ( 410.02%)
   displ. norm   :     0.1181421 α      lambda       -0.9261725E-03
   maximum displ.:     0.0802559 α      in ANC's #2, #5, #3, ...

........................................................................
.............................. CYCLE    9 ..............................
........................................................................
   1    -25.8766849 -0.258767E+02  0.807E-01    3.70       0.0  T
   2    -25.8766926 -0.763599E-05  0.617E-01    3.72       1.0  T
   3    -25.8755400  0.115260E-02  0.421E-01    3.64       1.0  T
   4    -25.8759838 -0.443853E-03  0.332E-01    3.76       1.0  T
   5    -25.8767640 -0.780187E-03  0.556E-03    3.71       7.3  T
   6    -25.8767640 -0.253805E-07  0.482E-03    3.71       8.5  T
   7    -25.8767640 -0.106420E-08  0.146E-03    3.71      27.9  T
   8    -25.8767640 -0.410269E-08  0.112E-04    3.71     364.7  T
   9    -25.8767640 -0.248690E-11  0.705E-06    3.71    5788.5  T
     SCC iter.                  ...        0 min,  0.001 sec
     gradient                   ...        0 min,  0.001 sec
 * total energy  :   -25.8309374 Eh     change       -0.4115834E-03 Eh
   gradient norm :     0.0034003 Eh/α   predicted    -0.4695501E-03 (  14.08%)
   displ. norm   :     0.0354717 α      lambda       -0.8520091E-04
   maximum displ.:     0.0240614 α      in ANC's #2, #9, #3, ...

........................................................................
.............................. CYCLE   10 ..............................
........................................................................
   1    -25.8784540 -0.258785E+02  0.208E-01    3.76       0.0  T
   2    -25.8784308  0.232103E-04  0.154E-01    3.74       1.0  T
   3    -25.8782914  0.139381E-03  0.168E-01    3.78       1.0  T
   4    -25.8784559 -0.164442E-03  0.396E-02    3.75       1.0  T
   5    -25.8784646 -0.871871E-05  0.390E-03    3.75      10.5  T
   6    -25.8784646 -0.267792E-08  0.203E-03    3.75      20.1  T
   7    -25.8784646 -0.100915E-08  0.295E-04    3.75     138.2  T
   8    -25.8784646 -0.120739E-09  0.165E-04    3.75     247.3  T
     SCC iter.                  ...        0 min,  0.001 sec
     gradient                   ...        0 min,  0.001 sec
 * total energy  :   -25.8309459 Eh     change       -0.8471750E-05 Eh
   gradient norm :     0.0023460 Eh/α   predicted    -0.4265442E-04 ( 403.49%)
   displ. norm   :     0.0223735 α      lambda       -0.3686064E-04
   maximum displ.:     0.0162751 α      in ANC's #2, #3, #7, ...

........................................................................
.............................. CYCLE   11 ..............................
........................................................................
   1    -25.8780791 -0.258781E+02  0.147E-01    3.74       0.0  T
   2    -25.8780773  0.179709E-05  0.100E-01    3.75       1.0  T
   3    -25.8780106  0.667221E-04  0.100E-01    3.73       1.0  T
   4    -25.8780730 -0.624081E-04  0.348E-02    3.75       1.2  T
   5    -25.8780810 -0.801230E-05  0.268E-03    3.75      15.2  T
   6    -25.8780810 -0.188098E-09  0.139E-03    3.75      29.3  T
   7    -25.8780810 -0.576851E-09  0.183E-04    3.75     222.8  T
   8    -25.8780810 -0.411760E-11  0.963E-05    3.75     423.8  T
     SCC iter.                  ...        0 min,  0.001 sec
     gradient                   ...        0 min,  0.001 sec
 * total energy  :   -25.8309633 Eh     change       -0.1747549E-04 Eh
   gradient norm :     0.0002759 Eh/α   predicted    -0.1843878E-04 (   5.51%)
   displ. norm   :     0.0037783 α      lambda       -0.6069029E-06
   maximum displ.:     0.0024595 α      in ANC's #7, #9, #5, ...

........................................................................
.............................. CYCLE   12 ..............................
........................................................................
   1    -25.8779089 -0.258779E+02  0.198E-02    3.74       0.0  T
   2    -25.8779088  0.972689E-07  0.127E-02    3.74       3.2  T
   3    -25.8779066  0.216464E-05  0.180E-02    3.74       2.3  T
   4    -25.8779089 -0.229313E-05  0.647E-04    3.74      63.1  T
   5    -25.8779089 -0.785619E-09  0.333E-04    3.74     122.4  T
   6    -25.8779089 -0.144311E-10  0.521E-05    3.74     783.3  T
     SCC iter.                  ...        0 min,  0.001 sec
     gradient                   ...        0 min,  0.000 sec
 * total energy  :   -25.8309633 Eh     change       -0.1243168E-07 Eh
   gradient norm :     0.0002734 Eh/α   predicted    -0.3024979E-06 (2333.28%)
   displ. norm   :     0.0028218 α      lambda       -0.3363785E-06
   maximum displ.:     0.0018273 α      in ANC's #1, #6, #7, ...

   *** GEOMETRY OPTIMIZATION CONVERGED AFTER 12 ITERATIONS ***

------------------------------------------------------------------------
 total energy gain   :        -0.1211187 Eh      -76.0031 kcal/mol
 total RMSD          :         0.7044413 a0        0.3728 Å
 total power (kW/mol):       -26.4997516 (step)********** (real)
------------------------------------------------------------------------

 ANCopt (total)                0 d,  0 h,  0 min,  0.031 sec
 optimizer setup                ...        0 min,  0.000 sec (  0.216%)
 model hessian                  ...        0 min,  0.000 sec (  1.202%)
 ANC generation                 ...        0 min,  0.000 sec (  0.243%)
 coordinate transformation      ...        0 min,  0.000 sec (  0.128%)
 single point calculation       ...        0 min,  0.029 sec ( 94.438%)
 optimization log               ...        0 min,  0.000 sec (  1.319%)
 hessian update                 ...        0 min,  0.000 sec (  0.194%)
 rational function              ...        0 min,  0.000 sec (  1.091%)

================
 final structure:
================
6
 xtb: 6.5.0 (746241f)
V           -0.15549919311859        2.21016634734309        0.10080813421938
F           -1.18405322549493        1.60053922638913       -1.03660979275505
F           -0.38108670582996        0.81316629573343        0.94994718950946
F            1.27938553299702        2.37809223530902        0.89839926207721
F            0.47584014356179        3.16499422456577       -1.08779289984505
F           -1.11878655211533        3.25824167065956        0.90564810679405
 
 Bond Distances (Angstroems)
 ---------------------------
V1-F2=1.6502         V1-F3=1.6503         V1-F4=1.6502         V1-F5=1.6502         V1-F6=1.6353         F2-V1=1.6502         
F3-V1=1.6503         F4-V1=1.6502         F5-V1=1.6502         F6-V1=1.6353         
 V  F  Rav=1.6472 sigma=0.0060  Rmin=1.6353  Rmax=1.6503     5
 
 selected bond angles (degree)
 --------------------
F3-V1-F2= 87.52                F4-V1-F2=155.88                F4-V1-F3= 87.50                F5-V1-F2= 87.46                
F5-V1-F3=155.88                F5-V1-F4= 87.51                F6-V1-F2=102.05                F6-V1-F3=102.05                
F6-V1-F4=102.07                F6-V1-F5=102.07                
 
 selected dihedral angles (degree)
 ---------------------------------

           -------------------------------------------------
          |                Final Singlepoint                |
           -------------------------------------------------

          ...................................................
          :                      SETUP                      :
          :.................................................:
          :  # basis functions                  30          :
          :  # atomic orbitals                  29          :
          :  # shells                           13          :
          :  # electrons                        40          :
          :  max. iterations                   250          :
          :  Hamiltonian                  GFN2-xTB          :
          :  restarted?                      false          :
          :  GBSA solvation                  false          :
          :  PC potential                    false          :
          :  electronic temp.          300.0000000     K    :
          :  accuracy                    1.0000000          :
          :  -> integral cutoff          0.2500000E+02      :
          :  -> integral neglect         0.1000000E-07      :
          :  -> SCF convergence          0.1000000E-05 Eh   :
          :  -> wf. convergence          0.1000000E-03 e    :
          :  Broyden damping             0.4000000          :
          ...................................................

 iter      E             dE          RMSdq      gap      omega  full diag
   1    -25.8779089 -0.258779E+02  0.240E-05    3.74       0.0  T
   2    -25.8779089  0.181188E-12  0.945E-06    3.74    4321.8  T
   3    -25.8779089  0.149925E-11  0.173E-05    3.74    2361.6  T

   *** convergence criteria satisfied after 3 iterations ***

         #    Occupation            Energy/Eh            Energy/eV
      -------------------------------------------------------------
         1        2.0000           -0.9711452             -26.4262
       ...           ...                  ...                  ...
        14        2.0000           -0.5806546             -15.8004
        15        2.0000           -0.5727059             -15.5841
        16        2.0000           -0.5726928             -15.5838
        17        2.0000           -0.5639967             -15.3471
        18        2.0000           -0.5616666             -15.2837
        19        2.0000           -0.5616359             -15.2829
        20        2.0000           -0.5551492             -15.1064 (HOMO)
        21                         -0.4175974             -11.3634 (LUMO)
        22                         -0.4175641             -11.3625
        23                         -0.4172553             -11.3541
        24                         -0.3461892              -9.4203
        25                         -0.0226112              -0.6153
       ...                                ...                  ...
        29                          0.6225492              16.9404
      -------------------------------------------------------------
                  HL-Gap            0.1375518 Eh            3.7430 eV
             Fermi-level           -0.4863733 Eh          -13.2349 eV

 SCC (total)                   0 d,  0 h,  0 min,  0.002 sec
 SCC setup                      ...        0 min,  0.000 sec (  2.978%)
 Dispersion                     ...        0 min,  0.000 sec (  0.788%)
 classical contributions        ...        0 min,  0.000 sec (  0.331%)
 integral evaluation            ...        0 min,  0.000 sec ( 20.359%)
 iterations                     ...        0 min,  0.001 sec ( 38.402%)
 molecular gradient             ...        0 min,  0.000 sec ( 32.714%)
 printout                       ...        0 min,  0.000 sec (  3.624%)

         :::::::::::::::::::::::::::::::::::::::::::::::::::::
         ::                     SUMMARY                     ::
         :::::::::::::::::::::::::::::::::::::::::::::::::::::
         :: total energy             -25.830963344050 Eh    ::
         :: gradient norm              0.000273481891 Eh/a0 ::
         :: HOMO-LUMO gap              3.742975251236 eV    ::
         ::.................................................::
         :: SCC energy               -25.877908909687 Eh    ::
         :: -> isotropic ES            0.069940796072 Eh    ::
         :: -> anisotropic ES          0.000112925353 Eh    ::
         :: -> anisotropic XC          0.000059487207 Eh    ::
         :: -> dispersion             -0.002595184152 Eh    ::
         :: repulsion energy           0.046945173299 Eh    ::
         :: add. restraining           0.000000000000 Eh    ::
         :: total charge               0.000000000000 e     ::
         :::::::::::::::::::::::::::::::::::::::::::::::::::::

           -------------------------------------------------
          |                Property Printout                |
           -------------------------------------------------

    * Orbital Energies and Occupations

         #    Occupation            Energy/Eh            Energy/eV
      -------------------------------------------------------------
         1        2.0000           -0.9711452             -26.4262
       ...           ...                  ...                  ...
         8        2.0000           -0.6107416             -16.6191
         9        2.0000           -0.6106005             -16.6153
        10        2.0000           -0.5966819             -16.2365
        11        2.0000           -0.5858215             -15.9410
        12        2.0000           -0.5838791             -15.8882
        13        2.0000           -0.5838657             -15.8878
        14        2.0000           -0.5806546             -15.8004
        15        2.0000           -0.5727059             -15.5841
        16        2.0000           -0.5726928             -15.5838
        17        2.0000           -0.5639967             -15.3471
        18        2.0000           -0.5616666             -15.2837
        19        2.0000           -0.5616359             -15.2829
        20        2.0000           -0.5551492             -15.1064 (HOMO)
        21                         -0.4175974             -11.3634 (LUMO)
        22                         -0.4175641             -11.3625
        23                         -0.4172553             -11.3541
        24                         -0.3461892              -9.4203
        25                         -0.0226112              -0.6153
        26                          0.3702891              10.0761
        27                          0.4853506              13.2071
        28                          0.4857447              13.2178
        29                          0.6225492              16.9404
      -------------------------------------------------------------
                  HL-Gap            0.1375518 Eh            3.7430 eV
             Fermi-level           -0.4863733 Eh          -13.2349 eV

     #   Z          covCN         q      C6AA      α(0)
     1  23 V        3.373     0.719   113.297    19.219
     2   9 F        0.675    -0.155    10.800     3.880
     3   9 F        0.675    -0.155    10.800     3.880
     4   9 F        0.675    -0.155    10.800     3.880
     5   9 F        0.675    -0.155    10.800     3.880
     6   9 F        0.675    -0.099    10.257     3.781

 Mol. C6AA /au·bohr⁶  :        708.400472
 Mol. C8AA /au·bohr⁸  :      31401.532838
 Mol. α(0) /au        :         38.518202


Wiberg/Mayer (AO) data.
largest (>0.10) Wiberg bond orders for each atom

 ---------------------------------------------------------------------------
     #   Z sym  total        # sym  WBO       # sym  WBO       # sym  WBO
 ---------------------------------------------------------------------------
     1  23 V    6.333 --     6 F    1.343     4 F    1.247     5 F    1.247
                             2 F    1.247     3 F    1.247
     2   9 F    1.471 --     1 V    1.247
     3   9 F    1.471 --     1 V    1.247
     4   9 F    1.471 --     1 V    1.247
     5   9 F    1.471 --     1 V    1.247
     6   9 F    1.564 --     1 V    1.343
 ---------------------------------------------------------------------------

Topologies differ in total number of bonds
Writing topology from bond orders to xtbtopo.mol

MOs/occ written to file <molden.input>


molecular dipole:
                 x           y           z       tot (Debye)
 q only:       -0.059       0.064       0.049
   full:        0.027      -0.029      -0.022       0.114
molecular quadrupole (traceless):
                xx          xy          yy          xz          yz          zz
 q only:       -0.207      -1.346       0.703      -0.770       1.122      -0.496
  q+dip:        0.145      -0.814      -0.024      -0.746       0.687      -0.120
   full:        0.173      -1.582       0.135      -1.337       1.331      -0.308

           -------------------------------------------------
          |                Geometry Summary                 |
           -------------------------------------------------

      molecular mass/u    :      145.9334808
   center of mass at/Å    :       -0.1751839       2.2315432       0.1171531
  moments of inertia/u·Å² :        0.1586034E+03   0.1586679E+03   0.1979176E+03
rotational constants/cm⁻¹ :        0.1062880E+00   0.1062448E+00   0.8517499E-01

 * 5 selected distances

     #   Z          #   Z                                           value/Å
     1  23 V        2   9 F                                       1.6502390
     1  23 V        3   9 F                                       1.6503141 (max)
     1  23 V        4   9 F                                       1.6502259
     1  23 V        5   9 F                                       1.6501693
     1  23 V        6   9 F                                       1.6352836 (min)

 * 1 distinct bonds (by element types)

   Z      Z             #   av. dist./Å        max./Å        min./Å
   9 F   23 V           5     1.6472463     1.6503141     1.6352836


optimized geometry written to: xtbopt.xyz


           -------------------------------------------------
          | TOTAL ENERGY              -25.830963344050 Eh   |
          | GRADIENT NORM               0.000273481891 Eh/α |
          | HOMO-LUMO GAP               3.742975251236 eV   |
           -------------------------------------------------

------------------------------------------------------------------------
 * finished run on 2022/07/20 at 16:32:10.264     
------------------------------------------------------------------------
 total:
 * wall-time:     0 d,  0 h,  0 min,  0.084 sec
 *  cpu-time:     0 d,  0 h,  0 min,  1.207 sec
 * ratio c/w:    14.286 speedup
 SCF:
 * wall-time:     0 d,  0 h,  0 min,  0.017 sec
 *  cpu-time:     0 d,  0 h,  0 min,  0.232 sec
 * ratio c/w:    14.020 speedup
 ANC optimizer:
 * wall-time:     0 d,  0 h,  0 min,  0.032 sec
 *  cpu-time:     0 d,  0 h,  0 min,  0.516 sec
 * ratio c/w:    15.921 speedup

