6
 energy: -25.709844681263 gnorm: 0.119019596821 xtb: 6.5.0 (746241f)
V            0.00510000000000        2.12720000000000        0.00290000000000
F           -1.40230000000000        1.87710000000000       -1.28570000000000
F           -0.32520000000000        0.82170000000000        1.37770000000000
F            1.54530000000000        2.25900000000000        1.14910000000000
F            0.49380000000000        3.28940000000000       -1.45110000000000
F           -1.40090000000000        3.05080000000000        0.93750000000000
6
 energy: -25.761914079895 gnorm: 0.107843845708 xtb: 6.5.0 (746241f)
V           -0.07028873642088        2.16282938879319        0.04749606689964
F           -1.36101236012352        1.74526313121279       -1.22107576989071
F           -0.36571458859326        0.77000516343345        1.24004762185898
F            1.49834775156235        2.33459213945035        1.02414791705780
F            0.55334312803948        3.26062693108048       -1.31267798460223
F           -1.33887519446418        3.15188324602975        0.95246214867651
6
 energy: -25.823432055097 gnorm: 0.038187788659 xtb: 6.5.0 (746241f)
V           -0.15092301503946        2.23187412117368        0.10744300107233
F           -1.23476381860907        1.69048941690982       -1.08674908842820
F           -0.36631696066252        0.83947421634725        1.06075332778098
F            1.35740734497694        2.35817121538497        0.87199769794765
F            0.54619295280362        3.15305271120096       -1.13391073425057
F           -1.23579650346952        3.15213831898332        0.91086579587781
6
 energy: -25.828150113771 gnorm: 0.038726875973 xtb: 6.5.0 (746241f)
V           -0.13239393123612        2.22600823112530        0.09760689405038
F           -1.17348898246373        1.56771441755894       -0.99486612277164
F           -0.40627176383901        0.81594188300011        0.90228384262153
F            1.24970985813061        2.38188740997618        0.90789754244843
F            0.44895735828486        3.16657601668191       -1.07216362019862
F           -1.07071253887661        3.26707204165755        0.88964146384992
6
 energy: -25.828890316470 gnorm: 0.023279031299 xtb: 6.5.0 (746241f)
V           -0.17155890295941        2.16438604022651        0.08904416254720
F           -1.18642372642203        1.61283535982950       -1.08164216275978
F           -0.35193431206589        0.79510561187050        0.98193126567466
F            1.24763109632306        2.39590026417435        0.89299936653467
F            0.45989665765929        3.16780028389484       -1.05482896982478
F           -1.08181081253502        3.28917244000430        0.90289633782803
6
 energy: -25.828544912677 gnorm: 0.027751261155 xtb: 6.5.0 (746241f)
V           -0.15017619174230        2.24377852694672        0.11186728361337
F           -1.19120866777112        1.60095812463760       -1.05077862160868
F           -0.37733311601406        0.80343212733587        0.96186286050794
F            1.31741509151458        2.35139261997085        0.92405190576439
F            0.48256372009857        3.16947126366785       -1.14025078470646
F           -1.16546083608567        3.25616733744112        0.92364735642944
6
 energy: -25.830297978230 gnorm: 0.013652582098 xtb: 6.5.0 (746241f)
V           -0.15249971652744        2.21563256989230        0.10164589299955
F           -1.19310874669707        1.61571396540139       -1.01628335678280
F           -0.39628970204141        0.83492373827533        0.95414034040816
F            1.29691579081658        2.38296327483572        0.87537247532913
F            0.50462632841688        3.15935495249619       -1.08369261945613
F           -1.14384395396754        3.21661149909908        0.89921726750209
6
 energy: -25.830525801021 gnorm: 0.010709828622 xtb: 6.5.0 (746241f)
V           -0.15721025584267        2.20311390633143        0.09859993050561
F           -1.17215938788258        1.58995987282258       -1.04534250193534
F           -0.36902217273035        0.80293455611155        0.94081197577470
F            1.25468388299207        2.37604118941179        0.91139419015048
F            0.44907510979673        3.16544290441622       -1.08050663902460
F           -1.08956717633319        3.28770757090642        0.90544304452916
6
 energy: -25.830937384376 gnorm: 0.003400902141 xtb: 6.5.0 (746241f)
V           -0.15408484465131        2.20881816169217        0.09958256356837
F           -1.18705591755979        1.59711881030679       -1.03713553359743
F           -0.38350274656114        0.80975923370733        0.95003680253145
F            1.28136027838740        2.37990513863929        0.90053520223753
F            0.47674908179773        3.16840974911400       -1.08891704999257
F           -1.11766585141289        3.26118890654042        0.90629801525265
6
 energy: -25.830945856126 gnorm: 0.002346187354 xtb: 6.5.0 (746241f)
V           -0.15682863066547        2.21302643300417        0.10239168432900
F           -1.18235092669539        1.60424984950594       -1.03634110363316
F           -0.37880255012107        0.81674107382431        0.95101291434807
F            1.28005372870031        2.37538151820017        0.89605081431889
F            0.47734161423208        3.16187620211223       -1.08855032548590
F           -1.12361323545047        3.25392492335319        0.90583601612310
6
 energy: -25.830963331619 gnorm: 0.000275898933 xtb: 6.5.0 (746241f)
V           -0.15523907288946        2.20975257232789        0.10040626075454
F           -1.18425921786310        1.60003305067659       -1.03577460223256
F           -0.38153169763672        0.81355855712442        0.94943414877699
F            1.27887649927517        2.37839098851208        0.89819949800804
F            0.47592595981549        3.16536151376970       -1.08704718685138
F           -1.11797247070139        3.25810331758933        0.90518188154437
6
 energy: -25.830963344051 gnorm: 0.000273489944 xtb: 6.5.0 (746241f)
V           -0.15549919311859        2.21016634734309        0.10080813421938
F           -1.18405322549493        1.60053922638913       -1.03660979275505
F           -0.38108670582996        0.81316629573343        0.94994718950946
F            1.27938553299702        2.37809223530902        0.89839926207721
F            0.47584014356179        3.16499422456577       -1.08779289984505
F           -1.11878655211533        3.25824167065956        0.90564810679405
