      -----------------------------------------------------------      
     |                   =====================                   |     
     |                           x T B                           |     
     |                   =====================                   |     
     |                         S. Grimme                         |     
     |          Mulliken Center for Theoretical Chemistry        |     
     |                    University of Bonn                     |     
      -----------------------------------------------------------      

   * xtb version 6.5.0 (746241f) compiled by 'ehlert@majestix' on 2022-05-15

   xtb is free software: you can redistribute it and/or modify it under
   the terms of the GNU Lesser General Public License as published by
   the Free Software Foundation, either version 3 of the License, or
   (at your option) any later version.
   
   xtb is distributed in the hope that it will be useful,
   but WITHOUT ANY WARRANTY; without even the implied warranty of
   MERCHANTABILITY or FITNESS FOR A PARTICULAR PURPOSE.  See the
   GNU Lesser General Public License for more details.
   
   Cite this work as:
   * C. Bannwarth, E. Caldeweyher, S. Ehlert, A. Hansen, P. Pracht,
     J. Seibert, S. Spicher, S. Grimme, WIREs Comput. Mol. Sci., 2020, 11,
     e01493. DOI: 10.1002/wcms.1493
   
   for GFN2-xTB:
   * C. Bannwarth, S. Ehlert and S. Grimme., J. Chem. Theory Comput., 2019,
     15, 1652-1671. DOI: 10.1021/acs.jctc.8b01176
   for GFN1-xTB:
   * S. Grimme, C. Bannwarth, P. Shushkov, J. Chem. Theory Comput., 2017,
     13, 1989-2009. DOI: 10.1021/acs.jctc.7b00118
   for GFN0-xTB:
   * P. Pracht, E. Caldeweyher, S. Ehlert, S. Grimme, ChemRxiv, 2019, preprint.
     DOI: 10.26434/chemrxiv.8326202.v1
   for GFN-FF:
   * S. Spicher and S. Grimme, Angew. Chem. Int. Ed., 2020, 59, 15665-15673.
     DOI: 10.1002/anie.202004239
   
   for ALPB and GBSA implicit solvation:
   * S. Ehlert, M. Stahn, S. Spicher, S. Grimme, J. Chem. Theory Comput.,
     2021, 17, 4250-4261. DOI: 10.1021/acs.jctc.1c00471
   
   for DFT-D4:
   * E. Caldeweyher, C. Bannwarth and S. Grimme, J. Chem. Phys., 2017,
     147, 034112. DOI: 10.1063/1.4993215
   * E. Caldeweyher, S. Ehlert, A. Hansen, H. Neugebauer, S. Spicher,
     C. Bannwarth and S. Grimme, J. Chem. Phys., 2019, 150, 154122.
     DOI: 10.1063/1.5090222
   * E. Caldeweyher, J.-M. Mewes, S. Ehlert and S. Grimme, Phys. Chem. Chem. Phys.
     2020, 22, 8499-8512. DOI: 10.1039/D0CP00502A
   
   for sTDA-xTB:
   * S. Grimme and C. Bannwarth, J. Chem. Phys., 2016, 145, 054103.
     DOI: 10.1063/1.4959605
   
   in the mass-spec context:
   * V. Asgeirsson, C. Bauer and S. Grimme, Chem. Sci., 2017, 8, 4879.
     DOI: 10.1039/c7sc00601b
   * J. Koopman and S. Grimme, ACS Omega 2019, 4, 12, 15120-15133.
     DOI: 10.1021/acsomega.9b02011
   
   for metadynamics refer to:
   * S. Grimme, J. Chem. Theory Comput., 2019, 155, 2847-2862
     DOI: 10.1021/acs.jctc.9b00143
   
   for SPH calculations refer to:
   * S. Spicher and S. Grimme, J. Chem. Theory Comput., 2021, 17, 1701-1714
     DOI: 10.1021/acs.jctc.0c01306
   
   with help from (in alphabetical order)
   P. Atkinson, C. Bannwarth, F. Bohle, G. Brandenburg, E. Caldeweyher
   M. Checinski, S. Dohm, S. Ehlert, S. Ehrlich, I. Gerasimov, C. Hölzer
   A. Katbashev, J. Koopman, C. Lavigne, S. Lehtola, F. März, M. Müller,
   F. Musil, H. Neugebauer, J. Pisarek, C. Plett, P. Pracht, F. Pultar,
   J. Seibert, P. Shushkov, S. Spicher, M. Stahn, M. Steiner, T. Strunk,
   J. Stückrath, T. Rose, and J. Unsleber
   
 * started run on 2022/07/14 at 15:23:24.569     

           -------------------------------------------------
          |                Calculation Setup                |
           -------------------------------------------------

          program call               : xtb -c 0 -u 0 e3_cl_downlike1.xyz --opt normal
          coordinate file            : e3_cl_downlike1.xyz
          omp threads                :                    16

   ID    Z sym.   atoms
    1    6 C      1, 2, 6, 8, 9, 12, 13, 15
    2    9 F      3, 14
    3    1 H      4, 10, 11, 16
    4   16 S      5, 7

           -------------------------------------------------
          |                 G F N 2 - x T B                 |
           -------------------------------------------------

        Reference                      10.1021/acs.jctc.8b01176
      * Hamiltonian:
        H0-scaling (s, p, d)           1.850000    2.230000    2.230000
        zeta-weighting                 0.500000
      * Dispersion:
        s8                             2.700000
        a1                             0.520000
        a2                             5.000000
        s9                             5.000000
      * Repulsion:
        kExp                           1.500000    1.000000
        rExp                           1.000000
      * Coulomb:
        alpha                          2.000000
        third order                    shell-resolved
        anisotropic                    true
        a3                             3.000000
        a5                             4.000000
        cn-shift                       1.200000
        cn-exp                         4.000000
        max-rad                        5.000000

q/qsh data taken from xtbrestart
CAMM data taken from xtbrestart

          ...................................................
          :                      SETUP                      :
          :.................................................:
          :  # basis functions                  64          :
          :  # atomic orbitals                  62          :
          :  # shells                           30          :
          :  # electrons                        62          :
          :  max. iterations                   250          :
          :  Hamiltonian                  GFN2-xTB          :
          :  restarted?                       true          :
          :  GBSA solvation                  false          :
          :  PC potential                    false          :
          :  electronic temp.          300.0000000     K    :
          :  accuracy                    1.0000000          :
          :  -> integral cutoff          0.2500000E+02      :
          :  -> integral neglect         0.1000000E-07      :
          :  -> SCF convergence          0.1000000E-05 Eh   :
          :  -> wf. convergence          0.1000000E-03 e    :
          :  Broyden damping             0.4000000          :
          ...................................................

 iter      E             dE          RMSdq      gap      omega  full diag
   1    -35.1830104 -0.351830E+02  0.537E+00    3.38       0.0  T
   2    -35.2085805 -0.255701E-01  0.425E+00    4.02       1.0  T
   3    -35.2281262 -0.195458E-01  0.196E+00    3.64       1.0  T
   4    -35.2502870 -0.221608E-01  0.267E-01    3.86       1.0  T
   5    -35.2503870 -0.100005E-03  0.148E-01    3.86       1.0  T
   6    -35.2505410 -0.153990E-03  0.458E-02    3.85       1.0  T
   7    -35.2505436 -0.257329E-05  0.185E-02    3.85       1.4  T
   8    -35.2505440 -0.441975E-06  0.557E-03    3.85       4.5  T
   9    -35.2505441 -0.606314E-07  0.162E-03    3.85      15.5  T
  10    -35.2505441 -0.140285E-08  0.570E-04    3.85      43.9  T
  11    -35.2505441 -0.301556E-08  0.233E-04    3.85     107.4  T

   *** convergence criteria satisfied after 11 iterations ***

         #    Occupation            Energy/Eh            Energy/eV
      -------------------------------------------------------------
         1        2.0000           -0.9029747             -24.5712
       ...           ...                  ...                  ...
        25        2.0000           -0.4387840             -11.9399
        26        2.0000           -0.4362461             -11.8709
        27        2.0000           -0.4292551             -11.6806
        28        2.0000           -0.4278471             -11.6423
        29        2.0000           -0.4155042             -11.3064
        30        2.0000           -0.3651877              -9.9373
        31        2.0000           -0.3639741              -9.9042 (HOMO)
        32                         -0.2223627              -6.0508 (LUMO)
        33                         -0.2174208              -5.9163
        34                         -0.2084686              -5.6727
        35                         -0.1803069              -4.9064
        36                         -0.1547134              -4.2100
       ...                                ...                  ...
        62                          6.7285827             183.0941
      -------------------------------------------------------------
                  HL-Gap            0.1416114 Eh            3.8534 eV
             Fermi-level           -0.2931684 Eh           -7.9775 eV

 SCC (total)                   0 d,  0 h,  0 min,  0.011 sec
 SCC setup                      ...        0 min,  0.000 sec (  0.790%)
 Dispersion                     ...        0 min,  0.000 sec (  0.593%)
 classical contributions        ...        0 min,  0.000 sec (  0.081%)
 integral evaluation            ...        0 min,  0.001 sec (  7.000%)
 iterations                     ...        0 min,  0.008 sec ( 72.836%)
 molecular gradient             ...        0 min,  0.002 sec ( 17.851%)
 printout                       ...        0 min,  0.000 sec (  0.709%)

         :::::::::::::::::::::::::::::::::::::::::::::::::::::
         ::                     SUMMARY                     ::
         :::::::::::::::::::::::::::::::::::::::::::::::::::::
         :: total energy             -33.312569760068 Eh    ::
         :: gradient norm              4.100489347337 Eh/a0 ::
         :: HOMO-LUMO gap              3.853441421843 eV    ::
         ::.................................................::
         :: SCC energy               -35.250544104948 Eh    ::
         :: -> isotropic ES            0.017260493452 Eh    ::
         :: -> anisotropic ES          0.009888457247 Eh    ::
         :: -> anisotropic XC         -0.020705771050 Eh    ::
         :: -> dispersion             -0.017479474032 Eh    ::
         :: repulsion energy           1.938005326115 Eh    ::
         :: add. restraining           0.000000000000 Eh    ::
         :: total charge              -0.000000000000 e     ::
         :::::::::::::::::::::::::::::::::::::::::::::::::::::

      ----------------------------------------------------------- 
     |                   =====================                   |
     |                        A N C O P T                        |
     |                   =====================                   |
     |               Approximate Normal Coordinate               |
     |                Rational Function Optimizer                |
      ----------------------------------------------------------- 

          ...................................................
          :                      SETUP                      :
          :.................................................:
          :   optimization level            normal          :
          :   max. optcycles                   200          :
          :   ANC micro-cycles                  20          :
          :   degrees of freedom                42          :
          :.................................................:
          :   RF solver                   davidson          :
          :   write xtbopt.log                true          :
          :   linear?                        false          :
          :   energy convergence         0.5000000E-05 Eh   :
          :   grad. convergence          0.1000000E-02 Eh/α :
          :   maximium RF displ.         1.0000000          :
          :   Hlow (freq-cutoff)         0.1000000E-01      :
          :   Hmax (freq-cutoff)         5.0000000          :
          :   S6 in model hess.         20.0000000          :
          ...................................................

generating ANC from model Hessian ...
Using Lindh-Hessian (1995)
 Shifting diagonal of input Hessian by   3.479723547897707E-004
 Lowest  eigenvalues of input Hessian
    0.000000    0.000000    0.000000    0.000000    0.000000    0.000000
    0.010000    0.018764    0.019992    0.039742    0.061643    0.065668
    0.074944    0.101270    0.109380    0.128626    0.132369    0.144083
 Highest eigenvalues
    3.630714    3.650989    4.882444    5.396367    6.734671    7.045715
 

........................................................................
.............................. CYCLE    1 ..............................
........................................................................
   1    -35.2505441 -0.352505E+02  0.528E-05    3.85       0.0  T
   2    -35.2505441 -0.756728E-11  0.264E-05    3.85     948.5  T
   3    -35.2505441 -0.959233E-12  0.186E-05    3.85    1343.7  T
     SCC iter.                  ...        0 min,  0.002 sec
     gradient                   ...        0 min,  0.003 sec
 * total energy  :   -33.3125698 Eh     change       -0.9517720E-10 Eh
   gradient norm :     4.1004907 Eh/α   predicted     0.0000000E+00 (-100.00%)
   displ. norm   :     0.6318916 α      lambda       -0.2492210E+01
   maximum displ.:     0.5038842 α      in ANC's #40, #26, #38, ...

........................................................................
.............................. CYCLE    2 ..............................
........................................................................
   1    -35.4283709 -0.354284E+02  0.301E+00    4.16       0.0  T
   2    -35.4397298 -0.113589E-01  0.178E+00    3.85       1.0  T
   3    -35.4429042 -0.317438E-02  0.963E-01    4.04       1.0  T
   4    -35.4481303 -0.522608E-02  0.277E-01    3.92       1.0  T
   5    -35.4484417 -0.311395E-03  0.135E-01    3.94       1.0  T
   6    -35.4485456 -0.103928E-03  0.179E-02    3.95       1.4  T
   7    -35.4485469 -0.126637E-05  0.842E-03    3.95       3.0  T
   8    -35.4485470 -0.731616E-07  0.470E-03    3.95       5.3  T
   9    -35.4485470 -0.359826E-07  0.100E-03    3.95      25.0  T
  10    -35.4485470 -0.244430E-08  0.584E-04    3.95      42.8  T
  11    -35.4485470 -0.216132E-08  0.139E-04    3.95     180.3  T
     SCC iter.                  ...        0 min,  0.006 sec
     gradient                   ...        0 min,  0.001 sec
 * total energy  :   -34.6052435 Eh     change       -0.1292674E+01 Eh
   gradient norm :     0.9796069 Eh/α   predicted    -0.1743659E+01 (  34.89%)
   displ. norm   :     0.4695126 α      lambda       -0.3802947E+00
   maximum displ.:     0.2916367 α      in ANC's #26, #24, #28, ...

........................................................................
.............................. CYCLE    3 ..............................
........................................................................
   1    -35.5058324 -0.355058E+02  0.126E+00    3.57       0.0  T
   2    -35.5090533 -0.322088E-02  0.845E-01    3.44       1.0  T
   3    -35.5093070 -0.253704E-03  0.355E-01    3.48       1.0  T
   4    -35.5098695 -0.562479E-03  0.171E-01    3.45       1.0  T
   5    -35.5100312 -0.161750E-03  0.680E-02    3.45       1.0  T
   6    -35.5100564 -0.251911E-04  0.149E-02    3.45       1.7  T
   7    -35.5100566 -0.180441E-06  0.577E-03    3.45       4.3  T
   8    -35.5100566 -0.836781E-08  0.181E-03    3.45      13.8  T
   9    -35.5100566 -0.138949E-07  0.850E-04    3.45      29.4  T
  10    -35.5100566 -0.369936E-08  0.209E-04    3.45     119.6  T
     SCC iter.                  ...        0 min,  0.006 sec
     gradient                   ...        0 min,  0.001 sec
 * total energy  :   -34.8817559 Eh     change       -0.2765124E+00 Eh
   gradient norm :     0.5377660 Eh/α   predicted    -0.2320638E+00 ( -16.07%)
   displ. norm   :     0.4500480 α      lambda       -0.1851534E+00
   maximum displ.:     0.2630359 α      in ANC's #26, #24, #14, ...

........................................................................
.............................. CYCLE    4 ..............................
........................................................................
   1    -35.5256231 -0.355256E+02  0.106E+00    3.12       0.0  T
   2    -35.5268360 -0.121294E-02  0.746E-01    3.07       1.0  T
   3    -35.5261092  0.726881E-03  0.341E-01    3.08       1.0  T
   4    -35.5276414 -0.153223E-02  0.116E-01    3.07       1.0  T
   5    -35.5277083 -0.669401E-04  0.498E-02    3.07       1.0  T
   6    -35.5277200 -0.117019E-04  0.107E-02    3.07       2.3  T
   7    -35.5277200 -0.180464E-07  0.489E-03    3.07       5.1  T
   8    -35.5277201 -0.488930E-07  0.247E-03    3.07      10.1  T
   9    -35.5277201 -0.362361E-07  0.635E-04    3.07      39.4  T
  10    -35.5277201 -0.138876E-09  0.287E-04    3.07      87.2  T
     SCC iter.                  ...        0 min,  0.006 sec
     gradient                   ...        0 min,  0.001 sec
 * total energy  :   -35.0158827 Eh     change       -0.1341268E+00 Eh
   gradient norm :     0.2782320 Eh/α   predicted    -0.1113274E+00 ( -17.00%)
   displ. norm   :     0.4068234 α      lambda       -0.7652757E-01
   maximum displ.:     0.1987409 α      in ANC's #26, #14, #24, ...

........................................................................
.............................. CYCLE    5 ..............................
........................................................................
   1    -35.5068114 -0.355068E+02  0.792E-01    2.79       0.0  T
   2    -35.5072051 -0.393692E-03  0.536E-01    2.76       1.0  T
   3    -35.5063347  0.870321E-03  0.284E-01    2.77       1.0  T
   4    -35.5075932 -0.125841E-02  0.695E-02    2.76       1.0  T
   5    -35.5076184 -0.252851E-04  0.332E-02    2.76       1.0  T
   6    -35.5076243 -0.591164E-05  0.653E-03    2.76       3.8  T
   7    -35.5076245 -0.157862E-06  0.361E-03    2.76       6.9  T
   8    -35.5076246 -0.497959E-07  0.110E-03    2.76      22.7  T
   9    -35.5076246 -0.136326E-08  0.383E-04    2.76      65.2  T
  10    -35.5076246 -0.906077E-09  0.188E-04    2.76     133.3  T
     SCC iter.                  ...        0 min,  0.007 sec
     gradient                   ...        0 min,  0.001 sec
 * total energy  :   -35.0684627 Eh     change       -0.5258004E-01 Eh
   gradient norm :     0.1397528 Eh/α   predicted    -0.4459667E-01 ( -15.18%)
   displ. norm   :     0.3407258 α      lambda       -0.2356381E-01
   maximum displ.:     0.1602232 α      in ANC's #5, #14, #8, ...

........................................................................
.............................. CYCLE    6 ..............................
........................................................................
   1    -35.4851096 -0.354851E+02  0.494E-01    2.63       0.0  T
   2    -35.4851747 -0.650491E-04  0.325E-01    2.62       1.0  T
   3    -35.4846329  0.541807E-03  0.198E-01    2.63       1.0  T
   4    -35.4852935 -0.660608E-03  0.312E-02    2.62       1.0  T
   5    -35.4852977 -0.420371E-05  0.162E-02    2.62       1.5  T
   6    -35.4852990 -0.133072E-05  0.319E-03    2.62       7.8  T
   7    -35.4852991 -0.773515E-07  0.134E-03    2.62      18.7  T
   8    -35.4852991 -0.390001E-08  0.863E-04    2.62      29.0  T
   9    -35.4852991 -0.267467E-08  0.180E-04    2.62     138.7  T
     SCC iter.                  ...        0 min,  0.005 sec
     gradient                   ...        0 min,  0.001 sec
 * total energy  :   -35.0844734 Eh     change       -0.1601068E-01 Eh
   gradient norm :     0.0882559 Eh/α   predicted    -0.1314975E-01 ( -17.87%)
   displ. norm   :     0.2681053 α      lambda       -0.7976542E-02
   maximum displ.:     0.1230602 α      in ANC's #5, #8, #11, ...

........................................................................
.............................. CYCLE    7 ..............................
........................................................................
   1    -35.4744764 -0.354745E+02  0.310E-01    2.58       0.0  T
   2    -35.4744905 -0.141670E-04  0.197E-01    2.58       1.0  T
   3    -35.4742915  0.199017E-03  0.121E-01    2.58       1.0  T
   4    -35.4745268 -0.235296E-03  0.156E-02    2.58       1.6  T
   5    -35.4745275 -0.671921E-06  0.564E-03    2.58       4.4  T
   6    -35.4745275 -0.386543E-07  0.250E-03    2.58      10.0  T
   7    -35.4745276 -0.515543E-07  0.120E-03    2.58      20.9  T
   8    -35.4745276 -0.288294E-08  0.430E-04    2.58      58.2  T
   9    -35.4745276 -0.141831E-09  0.254E-04    2.58      98.5  T
     SCC iter.                  ...        0 min,  0.005 sec
     gradient                   ...        0 min,  0.001 sec
 * total energy  :   -35.0900513 Eh     change       -0.5577876E-02 Eh
   gradient norm :     0.0662250 Eh/α   predicted    -0.4274972E-02 ( -23.36%)
   displ. norm   :     0.2153545 α      lambda       -0.4259017E-02
   maximum displ.:     0.0980376 α      in ANC's #11, #8, #4, ...

........................................................................
.............................. CYCLE    8 ..............................
........................................................................
   1    -35.4735449 -0.354735E+02  0.221E-01    2.58       0.0  T
   2    -35.4735842 -0.392586E-04  0.138E-01    2.59       1.0  T
   3    -35.4735561  0.280612E-04  0.798E-02    2.59       1.0  T
   4    -35.4736095 -0.533208E-04  0.257E-02    2.59       1.0  T
   5    -35.4736155 -0.608898E-05  0.897E-03    2.59       2.8  T
   6    -35.4736164 -0.872845E-06  0.316E-03    2.59       7.9  T
   7    -35.4736165 -0.395958E-07  0.165E-03    2.59      15.2  T
   8    -35.4736165 -0.914142E-08  0.638E-04    2.59      39.2  T
   9    -35.4736165 -0.856161E-09  0.197E-04    2.59     127.0  T
     SCC iter.                  ...        0 min,  0.005 sec
     gradient                   ...        0 min,  0.001 sec
 * total energy  :   -35.0931149 Eh     change       -0.3063639E-02 Eh
   gradient norm :     0.0460260 Eh/α   predicted    -0.2228255E-02 ( -27.27%)
   displ. norm   :     0.1625748 α      lambda       -0.2841807E-02
   maximum displ.:     0.0768322 α      in ANC's #11, #8, #1, ...

........................................................................
.............................. CYCLE    9 ..............................
........................................................................
   1    -35.4806939 -0.354807E+02  0.167E-01    2.62       0.0  T
   2    -35.4807768 -0.829546E-04  0.106E-01    2.63       1.0  T
   3    -35.4808078 -0.309701E-04  0.583E-02    2.63       1.0  T
   4    -35.4808118 -0.404710E-05  0.276E-02    2.63       1.0  T
   5    -35.4808184 -0.651515E-05  0.102E-02    2.63       2.4  T
   6    -35.4808193 -0.971140E-06  0.368E-03    2.63       6.8  T
   7    -35.4808194 -0.100421E-06  0.164E-03    2.63      15.3  T
   8    -35.4808194 -0.612494E-08  0.519E-04    2.63      48.2  T
   9    -35.4808194 -0.474550E-09  0.166E-04    2.63     150.2  T
     SCC iter.                  ...        0 min,  0.005 sec
     gradient                   ...        0 min,  0.001 sec
 * total energy  :   -35.0949965 Eh     change       -0.1881592E-02 Eh
   gradient norm :     0.0216760 Eh/α   predicted    -0.1458460E-02 ( -22.49%)
   displ. norm   :     0.0748063 α      lambda       -0.8948329E-03
   maximum displ.:     0.0374585 α      in ANC's #5, #1, #17, ...

........................................................................
.............................. CYCLE   10 ..............................
........................................................................
   1    -35.4886066 -0.354886E+02  0.882E-02    2.65       0.0  T
   2    -35.4886405 -0.339252E-04  0.572E-02    2.66       1.0  T
   3    -35.4886535 -0.129572E-04  0.303E-02    2.66       1.0  T
   4    -35.4886532  0.255634E-06  0.140E-02    2.66       1.8  T
   5    -35.4886550 -0.180070E-05  0.608E-03    2.66       4.1  T
   6    -35.4886553 -0.266867E-06  0.212E-03    2.66      11.8  T
   7    -35.4886553 -0.444356E-07  0.711E-04    2.66      35.1  T
   8    -35.4886553 -0.167825E-08  0.191E-04    2.66     131.2  T
     SCC iter.                  ...        0 min,  0.005 sec
     gradient                   ...        0 min,  0.001 sec
 * total energy  :   -35.0955514 Eh     change       -0.5549228E-03 Eh
   gradient norm :     0.0099200 Eh/α   predicted    -0.4499197E-03 ( -18.92%)
   displ. norm   :     0.0493493 α      lambda       -0.2058429E-03
   maximum displ.:     0.0335815 α      in ANC's #5, #1, #11, ...

........................................................................
.............................. CYCLE   11 ..............................
........................................................................
   1    -35.4915277 -0.354915E+02  0.579E-02    2.67       0.0  T
   2    -35.4915303 -0.253283E-05  0.340E-02    2.67       1.0  T
   3    -35.4915290  0.120820E-05  0.166E-02    2.67       1.5  T
   4    -35.4915312 -0.213134E-05  0.461E-03    2.67       5.4  T
   5    -35.4915314 -0.169359E-06  0.225E-03    2.67      11.1  T
   6    -35.4915314 -0.408955E-07  0.722E-04    2.67      34.6  T
   7    -35.4915314 -0.476057E-08  0.323E-04    2.67      77.3  T
     SCC iter.                  ...        0 min,  0.004 sec
     gradient                   ...        0 min,  0.001 sec
 * total energy  :   -35.0956938 Eh     change       -0.1423652E-03 Eh
   gradient norm :     0.0076879 Eh/α   predicted    -0.1031729E-03 ( -27.53%)
   displ. norm   :     0.0490726 α      lambda       -0.1081237E-03
   maximum displ.:     0.0314608 α      in ANC's #1, #5, #11, ...

........................................................................
.............................. CYCLE   12 ..............................
........................................................................
   1    -35.4920155 -0.354920E+02  0.534E-02    2.67       0.0  T
   2    -35.4920157 -0.237536E-06  0.300E-02    2.67       1.0  T
   3    -35.4920153  0.407013E-06  0.698E-03    2.67       3.6  T
   4    -35.4920158 -0.472729E-06  0.323E-03    2.67       7.7  T
   5    -35.4920158 -0.461400E-07  0.134E-03    2.67      18.7  T
   6    -35.4920158 -0.173640E-07  0.525E-04    2.67      47.6  T
   7    -35.4920158 -0.250026E-09  0.259E-04    2.67      96.5  T
     SCC iter.                  ...        0 min,  0.004 sec
     gradient                   ...        0 min,  0.001 sec
 * total energy  :   -35.0957650 Eh     change       -0.7124745E-04 Eh
   gradient norm :     0.0056688 Eh/α   predicted    -0.5419318E-04 ( -23.94%)
   displ. norm   :     0.0322312 α      lambda       -0.4339311E-04
   maximum displ.:     0.0261401 α      in ANC's #1, #5, #14, ...

........................................................................
.............................. CYCLE   13 ..............................
........................................................................
   1    -35.4913376 -0.354913E+02  0.288E-02    2.66       0.0  T
   2    -35.4913378 -0.175943E-06  0.159E-02    2.66       1.6  T
   3    -35.4913377  0.741967E-07  0.441E-03    2.66       5.7  T
   4    -35.4913379 -0.127161E-06  0.163E-03    2.66      15.3  T
   5    -35.4913379  0.431415E-08  0.775E-04    2.66      32.2  T
   6    -35.4913379 -0.739076E-08  0.349E-04    2.66      71.7  T
     SCC iter.                  ...        0 min,  0.004 sec
     gradient                   ...        0 min,  0.001 sec
 * total energy  :   -35.0957961 Eh     change       -0.3105581E-04 Eh
   gradient norm :     0.0044133 Eh/α   predicted    -0.2171967E-04 ( -30.06%)
   displ. norm   :     0.0298822 α      lambda       -0.3306150E-04
   maximum displ.:     0.0253543 α      in ANC's #1, #14, #5, ...

........................................................................
.............................. CYCLE   14 ..............................
........................................................................
   1    -35.4904931 -0.354905E+02  0.210E-02    2.66       0.0  T
   2    -35.4904933 -0.185688E-06  0.118E-02    2.66       2.1  T
   3    -35.4904930  0.232199E-06  0.608E-03    2.66       4.1  T
   4    -35.4904933 -0.306322E-06  0.183E-03    2.66      13.7  T
   5    -35.4904934 -0.237599E-07  0.882E-04    2.66      28.4  T
   6    -35.4904934 -0.351208E-08  0.282E-04    2.66      88.6  T
     SCC iter.                  ...        0 min,  0.004 sec
     gradient                   ...        0 min,  0.001 sec
 * total energy  :   -35.0958192 Eh     change       -0.2315382E-04 Eh
   gradient norm :     0.0037069 Eh/α   predicted    -0.1654580E-04 ( -28.54%)
   displ. norm   :     0.0232596 α      lambda       -0.2268992E-04
   maximum displ.:     0.0171316 α      in ANC's #1, #11, #14, ...

........................................................................
.............................. CYCLE   15 ..............................
........................................................................
   1    -35.4900838 -0.354901E+02  0.160E-02    2.66       0.0  T
   2    -35.4900839 -0.598612E-07  0.961E-03    2.66       2.6  T
   3    -35.4900836  0.309740E-06  0.650E-03    2.66       3.8  T
   4    -35.4900840 -0.455430E-06  0.110E-03    2.66      22.6  T
   5    -35.4900841 -0.708991E-08  0.556E-04    2.66      44.9  T
   6    -35.4900841 -0.137587E-08  0.188E-04    2.66     133.0  T
     SCC iter.                  ...        0 min,  0.004 sec
     gradient                   ...        0 min,  0.001 sec
 * total energy  :   -35.0958355 Eh     change       -0.1631538E-04 Eh
   gradient norm :     0.0031693 Eh/α   predicted    -0.1135169E-04 ( -30.42%)
   displ. norm   :     0.0204929 α      lambda       -0.1826241E-04
   maximum displ.:     0.0099167 α      in ANC's #11, #2, #1, ...

........................................................................
.............................. CYCLE   16 ..............................
........................................................................
   1    -35.4901929 -0.354902E+02  0.175E-02    2.66       0.0  T
   2    -35.4901930 -0.560830E-07  0.106E-02    2.66       2.4  T
   3    -35.4901925  0.450719E-06  0.734E-03    2.66       3.4  T
   4    -35.4901932 -0.675671E-06  0.105E-03    2.66      23.9  T
   5    -35.4901932 -0.182904E-08  0.394E-04    2.66      63.5  T
   6    -35.4901932 -0.340769E-09  0.178E-04    2.66     140.3  T
     SCC iter.                  ...        0 min,  0.004 sec
     gradient                   ...        0 min,  0.001 sec
 * total energy  :   -35.0958481 Eh     change       -0.1256562E-04 Eh
   gradient norm :     0.0023350 Eh/α   predicted    -0.9136507E-05 ( -27.29%)
   displ. norm   :     0.0158031 α      lambda       -0.9756573E-05
   maximum displ.:     0.0097954 α      in ANC's #2, #11, #3, ...

........................................................................
.............................. CYCLE   17 ..............................
........................................................................
   1    -35.4906311 -0.354906E+02  0.141E-02    2.66       0.0  T
   2    -35.4906312 -0.117854E-06  0.818E-03    2.66       3.1  T
   3    -35.4906310  0.228879E-06  0.513E-03    2.66       4.9  T
   4    -35.4906313 -0.330240E-06  0.137E-03    2.66      18.3  T
   5    -35.4906313 -0.111411E-07  0.386E-04    2.66      64.7  T
   6    -35.4906313 -0.402984E-09  0.137E-04    2.66     182.5  T
     SCC iter.                  ...        0 min,  0.004 sec
     gradient                   ...        0 min,  0.001 sec
 * total energy  :   -35.0958546 Eh     change       -0.6524971E-05 Eh
   gradient norm :     0.0015735 Eh/α   predicted    -0.4880741E-05 ( -25.20%)
   displ. norm   :     0.0170957 α      lambda       -0.4014388E-05
   maximum displ.:     0.0107317 α      in ANC's #2, #3, #7, ...

........................................................................
.............................. CYCLE   18 ..............................
........................................................................
   1    -35.4911462 -0.354911E+02  0.129E-02    2.66       0.0  T
   2    -35.4911464 -0.187498E-06  0.688E-03    2.66       3.6  T
   3    -35.4911463  0.486419E-07  0.327E-03    2.66       7.6  T
   4    -35.4911464 -0.566231E-07  0.166E-03    2.66      15.0  T
   5    -35.4911464 -0.306736E-07  0.422E-04    2.66      59.2  T
   6    -35.4911464 -0.775081E-09  0.153E-04    2.66     163.0  T
     SCC iter.                  ...        0 min,  0.003 sec
     gradient                   ...        0 min,  0.001 sec
 * total energy  :   -35.0958577 Eh     change       -0.3110203E-05 Eh
   gradient norm :     0.0011912 Eh/α   predicted    -0.2007051E-05 ( -35.47%)
   displ. norm   :     0.0049284 α      lambda       -0.1236848E-05
   maximum displ.:     0.0027453 α      in ANC's #6, #2, #3, ...

........................................................................
.............................. CYCLE   19 ..............................
........................................................................
   1    -35.4910969 -0.354911E+02  0.483E-03    2.66       0.0  T
   2    -35.4910969 -0.772620E-08  0.292E-03    2.66       8.6  T
   3    -35.4910968  0.328110E-07  0.193E-03    2.66      13.0  T
   4    -35.4910969 -0.464944E-07  0.366E-04    2.66      68.3  T
   5    -35.4910969 -0.379018E-09  0.143E-04    2.66     174.3  T
     SCC iter.                  ...        0 min,  0.003 sec
     gradient                   ...        0 min,  0.001 sec
 * total energy  :   -35.0958592 Eh     change       -0.1441218E-05 Eh
   gradient norm :     0.0008616 Eh/α   predicted    -0.6166818E-06 ( -57.21%)
   displ. norm   :     0.0124855 α      lambda       -0.1746302E-05
   maximum displ.:     0.0083143 α      in ANC's #2, #6, #3, ...

   *** GEOMETRY OPTIMIZATION CONVERGED AFTER 19 ITERATIONS ***

------------------------------------------------------------------------
 total energy gain   :        -1.7832894 Eh    -1119.0310 kcal/mol
 total RMSD          :         0.5755634 a0        0.3046 Å
 total power (kW/mol):      -246.4224079 (step)********** (real)
------------------------------------------------------------------------

 ANCopt (total)                0 d,  0 h,  0 min,  0.134 sec
 optimizer setup                ...        0 min,  0.000 sec (  0.043%)
 model hessian                  ...        0 min,  0.001 sec (  0.723%)
 ANC generation                 ...        0 min,  0.001 sec (  0.690%)
 coordinate transformation      ...        0 min,  0.000 sec (  0.058%)
 single point calculation       ...        0 min,  0.128 sec ( 95.536%)
 optimization log               ...        0 min,  0.001 sec (  0.969%)
 hessian update                 ...        0 min,  0.000 sec (  0.198%)
 rational function              ...        0 min,  0.002 sec (  1.381%)

================
 final structure:
================
16
 xtb: 6.5.0 (746241f)
C           -0.56039568987686        0.88438368947388       -0.00706074642231
C            0.01293825920736       -0.34745125450797       -0.02302801920753
F            2.99263876455519        3.80545544152261        0.08058185228733
H            6.79667930017982        1.33415698970042       -0.15695913436096
S            4.59541216003750        0.30956047283513       -0.14433903457696
C            5.75424745344208        1.57604974664145       -0.11380854540657
S            0.59588696259461        2.15306297685310       -0.00989659783950
C            5.18441750612585        2.80706854974151       -0.03440996259044
C            1.41611810903779       -0.25964611607020       -0.03750804234064
H           -1.60374562443929        1.12575651283470        0.00659415883598
H            5.72041477265346        3.73703947957206       -0.00266768007042
C            1.91460387821909        1.02240996539078       -0.03066861960904
C            3.78137353784967        2.72137132181023        0.00251418621523
F            2.20821170596774       -1.34417329053542       -0.05351891299519
C            3.28069056903124        1.44129543303829       -0.04575025352033
H           -0.52049166458523       -1.27943991830057       -0.02467464839864
 
 Bond Distances (Angstroems)
 ---------------------------
C1-C2=1.3588         C1-S7=1.7166         C1-H10=1.0710        C2-C1=1.3588         C2-C9=1.4060         C2-H16=1.0738        
F3-C13=1.3429        H4-C6=1.0710         S5-C6=1.7169         S5-C15=1.7375        C6-H4=1.0710         C6-S5=1.7169         
C6-C8=1.3588         S7-C1=1.7166         S7-C12=1.7372        C8-C6=1.3588         C8-H11=1.0738        C8-C13=1.4061        
C9-C2=1.4060         C9-C12=1.3756        C9-F14=1.3431        H10-C1=1.0710        H11-C8=1.0738        C12-S7=1.7372        
C12-C9=1.3756        C12-C15=1.4289       C13-F3=1.3429        C13-C8=1.4061        C13-C15=1.3754       F14-C9=1.3431        
C15-S5=1.7375        C15-C12=1.4289       C15-C13=1.3754       H16-C2=1.0738        
 C  H  Rav=1.0724 sigma=0.0014  Rmin=1.0710  Rmax=1.0738     4
 C  C  Rav=1.3871 sigma=0.0249  Rmin=1.3588  Rmax=1.4289     7
 F  C  Rav=1.3430 sigma=0.0001  Rmin=1.3429  Rmax=1.3431     2
 S  C  Rav=1.7270 sigma=0.0103  Rmin=1.7166  Rmax=1.7375     4
 
 selected bond angles (degree)
 --------------------
S7-C1-C2=112.69                H10-C1-C2=127.99               H10-C1-S7=119.32               C9-C2-C1=111.38                
H16-C2-C1=125.25               H16-C2-C9=123.36               C15-S5-C6= 91.68               S5-C6-H4=119.32                
C8-C6-H4=127.96                C8-C6-S5=112.72                C12-S7-C1= 91.74               H11-C8-C6=125.24               
C13-C8-C6=111.39               C13-C8-H11=123.37              C12-C9-C2=114.82               F14-C9-C2=122.57               
F14-C9-C12=122.61              
 
 selected dihedral angles (degree)
 ---------------------------------
C9-C2-C1-S7=  0.00            C9-C2-C1-H10=180.03           H16-C2-C1-S7=180.02           H16-C2-C1-H10=  0.03          
H4-C6-S5-C15=179.94           C8-C6-S5-C15=359.92           C12-S7-C1-C2=359.91           C12-S7-C1-H10=179.90          
H11-C8-C6-H4=359.98           H11-C8-C6-S5=179.99           C13-C8-C6-H4=179.99           C13-C8-C6-S5=  0.00           
C12-C9-C2-C1=  0.09           C12-C9-C2-H16=180.09          F14-C9-C2-C1=179.94           F14-C9-C2-H16=359.94          
           -------------------------------------------------
          |                Final Singlepoint                |
           -------------------------------------------------

          ...................................................
          :                      SETUP                      :
          :.................................................:
          :  # basis functions                  64          :
          :  # atomic orbitals                  62          :
          :  # shells                           30          :
          :  # electrons                        62          :
          :  max. iterations                   250          :
          :  Hamiltonian                  GFN2-xTB          :
          :  restarted?                      false          :
          :  GBSA solvation                  false          :
          :  PC potential                    false          :
          :  electronic temp.          300.0000000     K    :
          :  accuracy                    1.0000000          :
          :  -> integral cutoff          0.2500000E+02      :
          :  -> integral neglect         0.1000000E-07      :
          :  -> SCF convergence          0.1000000E-05 Eh   :
          :  -> wf. convergence          0.1000000E-03 e    :
          :  Broyden damping             0.4000000          :
          ...................................................

 iter      E             dE          RMSdq      gap      omega  full diag
   1    -35.4910969 -0.354911E+02  0.618E-05    2.66       0.0  T
   2    -35.4910969 -0.119513E-10  0.444E-05    2.66     563.2  T
   3    -35.4910969 -0.207763E-10  0.223E-05    2.66    1118.6  T

   *** convergence criteria satisfied after 3 iterations ***

         #    Occupation            Energy/Eh            Energy/eV
      -------------------------------------------------------------
         1        2.0000           -0.8256008             -22.4657
       ...           ...                  ...                  ...
        25        2.0000           -0.4714719             -12.8294
        26        2.0000           -0.4696617             -12.7801
        27        2.0000           -0.4569943             -12.4354
        28        2.0000           -0.4430823             -12.0569
        29        2.0000           -0.4110462             -11.1851
        30        2.0000           -0.4098249             -11.1519
        31        2.0000           -0.3849651             -10.4754 (HOMO)
        32                         -0.2872012              -7.8151 (LUMO)
        33                         -0.2380951              -6.4789
        34                         -0.2245648              -6.1107
        35                         -0.2133101              -5.8045
        36                         -0.1938295              -5.2744
       ...                                ...                  ...
        62                          0.6818786              18.5549
      -------------------------------------------------------------
                  HL-Gap            0.0977640 Eh            2.6603 eV
             Fermi-level           -0.3360831 Eh           -9.1453 eV

 SCC (total)                   0 d,  0 h,  0 min,  0.004 sec
 SCC setup                      ...        0 min,  0.000 sec (  1.567%)
 Dispersion                     ...        0 min,  0.000 sec (  1.233%)
 classical contributions        ...        0 min,  0.000 sec (  0.167%)
 integral evaluation            ...        0 min,  0.001 sec ( 14.577%)
 iterations                     ...        0 min,  0.002 sec ( 48.214%)
 molecular gradient             ...        0 min,  0.001 sec ( 30.065%)
 printout                       ...        0 min,  0.000 sec (  3.820%)

         :::::::::::::::::::::::::::::::::::::::::::::::::::::
         ::                     SUMMARY                     ::
         :::::::::::::::::::::::::::::::::::::::::::::::::::::
         :: total energy             -35.095859187545 Eh    ::
         :: gradient norm              0.000862036516 Eh/a0 ::
         :: HOMO-LUMO gap              2.660292673452 eV    ::
         ::.................................................::
         :: SCC energy               -35.491096885223 Eh    ::
         :: -> isotropic ES            0.021632399825 Eh    ::
         :: -> anisotropic ES          0.000479566611 Eh    ::
         :: -> anisotropic XC          0.002283374435 Eh    ::
         :: -> dispersion             -0.018427585703 Eh    ::
         :: repulsion energy           0.395246237422 Eh    ::
         :: add. restraining           0.000000000000 Eh    ::
         :: total charge              -0.000000000000 e     ::
         :::::::::::::::::::::::::::::::::::::::::::::::::::::

           -------------------------------------------------
          |                Property Printout                |
           -------------------------------------------------

    * Orbital Energies and Occupations

         #    Occupation            Energy/Eh            Energy/eV
      -------------------------------------------------------------
         1        2.0000           -0.8256008             -22.4657
       ...           ...                  ...                  ...
        19        2.0000           -0.5119672             -13.9313
        20        2.0000           -0.5072330             -13.8025
        21        2.0000           -0.4965513             -13.5118
        22        2.0000           -0.4836784             -13.1616
        23        2.0000           -0.4835084             -13.1569
        24        2.0000           -0.4800527             -13.0629
        25        2.0000           -0.4714719             -12.8294
        26        2.0000           -0.4696617             -12.7801
        27        2.0000           -0.4569943             -12.4354
        28        2.0000           -0.4430823             -12.0569
        29        2.0000           -0.4110462             -11.1851
        30        2.0000           -0.4098249             -11.1519
        31        2.0000           -0.3849651             -10.4754 (HOMO)
        32                         -0.2872012              -7.8151 (LUMO)
        33                         -0.2380951              -6.4789
        34                         -0.2245648              -6.1107
        35                         -0.2133101              -5.8045
        36                         -0.1938295              -5.2744
        37                         -0.1641632              -4.4671
        38                         -0.1490395              -4.0556
        39                         -0.1171732              -3.1884
        40                         -0.0256146              -0.6970
        41                         -0.0063240              -0.1721
        42                          0.0052614               0.1432
       ...                                ...                  ...
        62                          0.6818786              18.5549
      -------------------------------------------------------------
                  HL-Gap            0.0977640 Eh            2.6603 eV
             Fermi-level           -0.3360831 Eh           -9.1453 eV

     #   Z          covCN         q      C6AA      α(0)
     1   6 C        2.952    -0.029    28.732     8.792
     2   6 C        3.092    -0.062    29.433     8.892
     3   9 F        0.786    -0.213    11.366     3.982
     4   1 H        0.927     0.063     2.169     2.303
     5  16 S        2.342     0.033   139.730    19.895
     6   6 C        2.952    -0.029    28.733     8.792
     7  16 S        2.344     0.033   139.729    19.895
     8   6 C        3.092    -0.062    29.435     8.893
     9   6 C        3.006     0.148    24.777     8.165
    10   1 H        0.927     0.063     2.168     2.303
    11   1 H        0.926     0.064     2.152     2.294
    12   6 C        3.007    -0.003    28.078     8.692
    13   6 C        3.004     0.148    24.776     8.165
    14   9 F        0.786    -0.213    11.367     3.982
    15   6 C        3.006    -0.003    28.078     8.692
    16   1 H        0.926     0.064     2.152     2.294

 Mol. C6AA /au·bohr⁶  :       6096.035196
 Mol. C8AA /au·bohr⁸  :     192663.660226
 Mol. α(0) /au        :        126.031982


Wiberg/Mayer (AO) data.
largest (>0.10) Wiberg bond orders for each atom

 ---------------------------------------------------------------------------
     #   Z sym  total        # sym  WBO       # sym  WBO       # sym  WBO
 ---------------------------------------------------------------------------
     1   6 C    3.939 --     2 C    1.598     7 S    1.208    10 H    0.969
     2   6 C    3.984 --     1 C    1.598     9 C    1.270    16 H    0.962
     3   9 F    1.112 --    13 C    0.961
     4   1 H    0.996 --     6 C    0.969
     5  16 S    2.642 --     6 C    1.208    15 C    1.140
     6   6 C    3.939 --     8 C    1.598     5 S    1.208     4 H    0.969
     7  16 S    2.642 --     1 C    1.208    12 C    1.140
     8   6 C    3.984 --     6 C    1.598    13 C    1.270    11 H    0.962
     9   6 C    3.877 --    12 C    1.449     2 C    1.270    14 F    0.960
    10   1 H    0.996 --     1 C    0.969
    11   1 H    0.996 --     8 C    0.962
    12   6 C    3.953 --     9 C    1.449    15 C    1.157     7 S    1.140
    13   6 C    3.877 --    15 C    1.449     8 C    1.270     3 F    0.961
    14   9 F    1.113 --     9 C    0.960
    15   6 C    3.953 --    13 C    1.449    12 C    1.157     5 S    1.140
    16   1 H    0.996 --     2 C    0.962
 ---------------------------------------------------------------------------

Topologies differ in total number of bonds
Writing topology from bond orders to xtbtopo.mol

molecular dipole:
                 x           y           z       tot (Debye)
 q only:       -0.002       0.000      -0.037
   full:       -0.001      -0.001      -0.025       0.063
molecular quadrupole (traceless):
                xx          xy          yy          xz          yz          zz
 q only:       12.306       2.434     -10.483      -0.488      -0.430      -1.823
  q+dip:       14.875       7.574     -12.210      -0.313      -0.512      -2.665
   full:       14.414       6.891     -13.152      -0.295      -0.567      -1.262

           -------------------------------------------------
          |                Geometry Summary                 |
           -------------------------------------------------

      molecular mass/u    :      202.2440313
   center of mass at/Å    :        2.5977145       1.2308496      -0.0400024
  moments of inertia/u·Å² :        0.4049813E+03   0.7945469E+03   0.1199075E+04
rotational constants/cm⁻¹ :        0.4162570E-01   0.2121666E-01   0.1405887E-01

 * 17 selected distances

     #   Z          #   Z                                           value/Å
     1   6 C        2   6 C                                       1.3588173
     4   1 H        6   6 C                                       1.0709988
     5  16 S        6   6 C                                       1.7169237
     1   6 C        7  16 S                                       1.7165504
     6   6 C        8   6 C                                       1.3588296
     2   6 C        9   6 C                                       1.4059991
     1   6 C       10   1 H                                       1.0709933 (min)
     8   6 C       11   1 H                                       1.0738467
     7  16 S       12   6 C                                       1.7371881
     9   6 C       12   6 C                                       1.3755737
     3   9 F       13   6 C                                       1.3429206
     8   6 C       13   6 C                                       1.4061437
     9   6 C       14   9 F                                       1.3430816
     5  16 S       15   6 C                                       1.7375377 (max)
    12   6 C       15   6 C                                       1.4289457
    13   6 C       15   6 C                                       1.3753572
     2   6 C       16   1 H                                       1.0738497

 * 4 distinct bonds (by element types)

   Z      Z             #   av. dist./Å        max./Å        min./Å
   1 H    6 C           4     1.0724221     1.0738497     1.0709933
   6 C    6 C           7     1.3870952     1.4289457     1.3588173
   6 C    9 F           2     1.3430011     1.3430816     1.3429206
   6 C   16 S           4     1.7270500     1.7375377     1.7165504


optimized geometry written to: xtbopt.xyz


           -------------------------------------------------
          | TOTAL ENERGY              -35.095859187545 Eh   |
          | GRADIENT NORM               0.000862036516 Eh/α |
          | HOMO-LUMO GAP               2.660292673452 eV   |
           -------------------------------------------------
########################################################################
[WARNING] Runtime exception occurred
-1- restart_readRestart: Number of electron missmatch in restart file.
########################################################################

------------------------------------------------------------------------
 * finished run on 2022/07/14 at 15:23:24.730     
------------------------------------------------------------------------
 total:
 * wall-time:     0 d,  0 h,  0 min,  0.161 sec
 *  cpu-time:     0 d,  0 h,  0 min,  2.542 sec
 * ratio c/w:    15.759 speedup
 SCF:
 * wall-time:     0 d,  0 h,  0 min,  0.011 sec
 *  cpu-time:     0 d,  0 h,  0 min,  0.176 sec
 * ratio c/w:    15.693 speedup
 ANC optimizer:
 * wall-time:     0 d,  0 h,  0 min,  0.139 sec
 *  cpu-time:     0 d,  0 h,  0 min,  2.206 sec
 * ratio c/w:    15.923 speedup

