16
 energy: -35.095859187545 gnorm: 0.000862036516 xtb: 6.5.0 (746241f)
C           -0.56039568987686        0.88438368947388       -0.00706074642231
C            0.01293825920736       -0.34745125450797       -0.02302801920753
F            2.99263876455519        3.80545544152261        0.08058185228733
H            6.79667930017982        1.33415698970042       -0.15695913436096
S            4.59541216003750        0.30956047283513       -0.14433903457696
C            5.75424745344208        1.57604974664145       -0.11380854540657
S            0.59588696259461        2.15306297685310       -0.00989659783950
C            5.18441750612585        2.80706854974151       -0.03440996259044
C            1.41611810903779       -0.25964611607020       -0.03750804234064
H           -1.60374562443929        1.12575651283470        0.00659415883598
H            5.72041477265346        3.73703947957206       -0.00266768007042
C            1.91460387821909        1.02240996539078       -0.03066861960904
C            3.78137353784967        2.72137132181023        0.00251418621523
F            2.20821170596774       -1.34417329053542       -0.05351891299519
C            3.28069056903124        1.44129543303829       -0.04575025352033
H           -0.52049166458523       -1.27943991830057       -0.02467464839864
