16
 energy: -33.312569760163 gnorm: 4.100490689121 xtb: 6.5.0 (746241f)
C           -0.41570000000000        0.82200000000000        0.00120000000000
C            0.11520000000000       -0.41060000000000       -0.01090000000000
F            3.36990000000000        3.66470000000000       -0.03130000000000
H            6.59140000000000        1.18420000000000       -0.08220000000000
S            4.14660000000000        0.75030000000000       -0.30190000000000
C            5.60290000000000        1.62650000000000       -0.07110000000000
S            1.03850000000000        1.73060000000000        0.02630000000000
C            5.08490000000000        2.86110000000000        0.02260000000000
C            1.52350000000000       -0.12800000000000       -0.01840000000000
H           -1.40850000000000        1.25390000000000        0.02430000000000
H            5.61110000000000        3.80840000000000        0.12740000000000
C            1.87360000000000        0.96010000000000       -0.03790000000000
C            3.67620000000000        2.60270000000000       -0.08450000000000
F            1.84100000000000       -1.18820000000000       -0.00140000000000
C            3.31970000000000        1.51840000000000       -0.15460000000000
H           -0.40130000000000       -1.36920000000000       -0.00220000000000
16
 energy: -34.605243491478 gnorm: 0.979613176366 xtb: 6.5.0 (746241f)
C           -0.42770378793538        0.83197146622346        0.00222820299541
C            0.10781024578671       -0.40188457986914       -0.01047081507872
F            3.33424168695204        3.74106816168373       -0.02711755361437
H            6.59273179774880        1.18508534817953       -0.08214879946163
S            4.27465849869972        0.61362097141496       -0.32247077615857
C            5.61494792351330        1.61660193312896       -0.07331696817563
S            0.90893909981581        1.86751156473855        0.03434006971789
C            5.09227200400535        2.85249777138450        0.02150070110354
C            1.50889512925729       -0.15780661938680       -0.01980766233393
H           -1.40981196018685        1.25302017072291        0.02434045563697
H            5.60922093631060        3.80583749220945        0.12740750637279
C            1.97213387329136        0.91590627205886       -0.04557646932106
C            3.69087207219460        2.63188716244699       -0.07874461394770
F            1.87758497998067       -1.26440195396393       -0.00098416354241
C            3.22163407696937        1.56257529468900       -0.14137943875111
H           -0.39942657640339       -1.36659045566102       -0.00239967544147
16
 energy: -34.881755885907 gnorm: 0.537767530509 xtb: 6.5.0 (746241f)
C           -0.44850386993488        0.84228073736440        0.00582718461137
C            0.07534793946368       -0.39713106045093       -0.00661964984178
F            3.28188148538740        3.85452059019201       -0.01517337677642
H            6.60699694716590        1.18579425819231       -0.08211066952656
S            4.32454771400402        0.55123750227582       -0.31845270004472
C            5.63613049967627        1.60688500008335       -0.08003249165475
S            0.85766409903266        1.92845189930202        0.02624259699798
C            5.12523899510023        2.84811647460647        0.01685531289670
C            1.46563356631334       -0.21933971812740       -0.01348554072549
H           -1.42396124549172        1.25226974752142        0.02464221871777
H            5.61283984626804        3.80038053737328        0.12856099704606
C            1.97007587138273        0.94868979804714       -0.04991437023182
C            3.73511532446019        2.69360350729697       -0.07829868093558
F            1.93031771145786       -1.37790129419758       -0.00667172775176
C            3.22258566793490        1.53006310259331       -0.14282783079634
H           -0.40291055222064       -1.36102108207258       -0.00314127198466
16
 energy: -35.015882658063 gnorm: 0.278233502529 xtb: 6.5.0 (746241f)
C           -0.48477411261187        0.85334167526337        0.01035438259956
C            0.04778548202662       -0.38717483891946       -0.00178318718933
F            3.20834679284770        3.91165661222439       -0.00257922715533
H            6.64436186508589        1.19050778036237       -0.08330417774246
S            4.40833103512497        0.48423345479491       -0.31088621307221
C            5.67303209741656        1.59650153024523       -0.08822023712326
S            0.77238186475783        1.99381435059801        0.01719622627414
C            5.15344830210074        2.83871444808849        0.01018060185700
C            1.42802840488488       -0.25748322712549       -0.00962693666179
H           -1.46094878536466        1.24738105627033        0.02680082867379
H            5.61718581574984        3.79464639261286        0.12903097920354
C            1.94715500492912        0.97536155418584       -0.05427739926894
C            3.77353910377221        2.73157999485033       -0.07589738758456
F            2.00386168901389       -1.43512024821502       -0.01536014931777
C            3.24414781551785        1.50397541394049       -0.14313597253300
H           -0.40688237525156       -1.35503594917666       -0.00309213095939
16
 energy: -35.068462693955 gnorm: 0.139755843881 xtb: 6.5.0 (746241f)
C           -0.51871690722610        0.86390807201404        0.01389366565450
C            0.02610992919819       -0.37737946291617        0.00279324420993
F            3.13284057366727        3.93423478897003        0.01061873799932
H            6.69853181916511        1.20769461345670       -0.08675207711317
S            4.48040075737136        0.42172661393545       -0.29425476699301
C            5.70784289032405        1.58712683914544       -0.09779594939568
S            0.69875129559766        2.05406423911348        0.00289599013945
C            5.17588519358157        2.82994495123141        0.00198302762575
C            1.40949402651318       -0.28039264171473       -0.01295780159035
H           -1.51426047920402        1.23039354723769        0.03049703706329
H            5.64006454839788        3.78629282320978        0.12648913169193
C            1.93027351157764        0.99989300067616       -0.06209156660700
C            3.79242752942246        2.75390787548255       -0.06755813752095
F            2.07897639433470       -1.45792550966998       -0.02449167164080
C            3.25948230549969        1.47956193475483       -0.13772590782190
H           -0.42910338822064       -1.34615168492668       -0.00014295570131
16
 energy: -35.084473378455 gnorm: 0.088262971555 xtb: 6.5.0 (746241f)
C           -0.54752463244812        0.86930852498794        0.01278505025931
C            0.00943624033757       -0.36867421962014        0.00370782367248
F            3.08036868872990        3.92832012646671        0.02591618255007
H            6.75373001590544        1.24722952266191       -0.09639607289153
S            4.53181513601435        0.37720003406017       -0.26759074452932
C            5.73790182106791        1.58363153383123       -0.10522780419222
S            0.64658519909326        2.09545666060200       -0.01473182524638
C            5.19290190857601        2.82275248380627       -0.00503612347098
C            1.40221331131632       -0.28678609727195       -0.02305075332480
H           -1.56737068120551        1.19313622702624        0.03366992939420
H            5.67782851861919        3.77190881669661        0.11337988010678
C            1.91775397131201        1.01619805785380       -0.07145045871292
C            3.79917507011007        2.75859175583078       -0.05165056136070
F            2.12984882557957       -1.45340550442123       -0.03315080613554
C            3.27094612196508        1.46178316661887       -0.12316167148912
H           -0.46660951497305       -1.32975108912921        0.00738795537066
16
 energy: -35.090051254151 gnorm: 0.066236164472 xtb: 6.5.0 (746241f)
C           -0.56539889228153        0.87288363750605        0.00710977945832
C            0.00186525723256       -0.36056272282305        0.00030966715352
F            3.04740981647310        3.90683365672398        0.04340920140826
H            6.79103943004036        1.29012523662541       -0.11270130427437
S            4.56445820445269        0.34771152183914       -0.23593441200019
C            5.75706543327363        1.58211622794088       -0.10949732755104
S            0.61415028033062        2.12141201053441       -0.02880020457080
C            5.20030416881130        2.81619764085595       -0.01020975379399
C            1.40218456446659       -0.28334332646953       -0.03347003259072
H           -1.60193203998799        1.15429551654908        0.03227537806427
H            5.71100658214559        3.75589145792985        0.08892668623744
C            1.91112764432836        1.02506490798826       -0.07648167293358
C            3.79816059339657        2.75256561567909       -0.03113757037401
F            2.16044133918408       -1.43442770639949       -0.04016155482392
C            3.27731330837083        1.45022253961586       -0.10216829029139
H           -0.50019569023673       -1.31008621409589        0.01393141088220
16
 energy: -35.093114893157 gnorm: 0.046037380355 xtb: 6.5.0 (746241f)
C           -0.57455489385968        0.87606522499732        0.00034867974306
C            0.00204363114018       -0.35329377205914       -0.00477017346462
F            3.02572189888541        3.87656312346362        0.06070984600335
H            6.81057472457931        1.32564212118758       -0.13077266073744
S            4.58584117063897        0.32745397979294       -0.20490236842099
C            5.76677356087470        1.58007609493148       -0.11187965156915
S            0.59315197408722        2.13899708982783       -0.03863039891687
C            5.19991033248842        2.80990366916938       -0.01421876594894
C            1.40681151159184       -0.27424147760151       -0.04151613440295
H           -1.62004081262195        1.12169631022890        0.02782911919066
H            5.73356348467472        3.74060953345459        0.06103457137908
C            1.90858430149545        1.02948252939455       -0.07692373952366
C            3.79278162365925        2.74153264898204       -0.01144751091506
F            2.18075299293284       -1.40610395684541       -0.04548521942078
C            3.28003157201803        1.44387063648977       -0.08115539525432
H           -0.52294707258471       -1.29135375541395        0.01717980225863
16
 energy: -35.094996484914 gnorm: 0.021681247599 xtb: 6.5.0 (746241f)
C           -0.57580545022277        0.87907286156856       -0.00483988641244
C            0.00805132033404       -0.34754951176142       -0.00941118416906
F            3.01301577562005        3.84209396344183        0.07469437416018
H            6.81391295429986        1.34777596938452       -0.14559268870470
S            4.59834772492339        0.31478967679304       -0.18015965298441
C            5.76769642037889        1.57710431762633       -0.11291164441900
S            0.58135247012843        2.15040378259319       -0.04398889604929
C            5.19358014220075        2.80439957805800       -0.01732116469471
C            1.41413612785252       -0.26213489597546       -0.04583434125726
H           -1.62372810136486        1.10062043489238        0.02268980884956
H            5.74146732735430        3.72827915057923        0.03779592142272
C            1.90924553463401        1.03047469099590       -0.07341319880025
C            3.78546383183272        2.72874349734431        0.00212368058560
F            2.19360539652466       -1.37246501056859       -0.04905250151159
C            3.28008679523962        1.44235805583766       -0.06602999201319
H           -0.53142826973560       -1.27706656080947        0.01665136599785
16
 energy: -35.095551407746 gnorm: 0.009920062911 xtb: 6.5.0 (746241f)
C           -0.57103419025368        0.88078181945092       -0.00645417490184
C            0.01345701141360       -0.34598389466680       -0.01188388378123
F            3.01062315277027        3.82327382429822        0.08020441911070
H            6.80668584746897        1.34803664335404       -0.15144254129902
S            4.59975386095296        0.31185134789573       -0.17125384367905
C            5.76258116977913        1.57531516333197       -0.11338084480663
S            0.58110519415918        2.15296640126354       -0.04091992888035
C            5.18768078961458        2.80292415908966       -0.01993147415566
C            1.41818543350719       -0.25575326827810       -0.04339461651425
H           -1.61696385489237        1.10120648238620        0.01779753440379
H            5.73417786516698        3.72649820396607        0.02822470908507
C            1.91145598808411        1.02874084517263       -0.06601250412443
C            3.78175302919289        2.72220486166692        0.00428273998683
F            2.19614955545416       -1.35422651721402       -0.04908788492449
C            3.27893862774609        1.44377092583170       -0.06174979320556
H           -0.52554948016404       -1.27470699754867        0.01040208768612
16
 energy: -35.095693772993 gnorm: 0.007688647983 xtb: 6.5.0 (746241f)
C           -0.56686893227251        0.88126619048916       -0.00696726987975
C            0.01498793079547       -0.34674095878159       -0.01332106572578
F            3.01065328457185        3.81821077033969        0.08246672435545
H            6.80120128277013        1.34093392353486       -0.15337974400294
S            4.59779977192794        0.31208956325920       -0.16914229625380
C            5.75843886937233        1.57512784567983       -0.11430003020757
S            0.58405340020978        2.15232572144333       -0.03424474613355
C            5.18579095532254        2.80400638655109       -0.02281989534635
C            1.41845522022020       -0.25505480371894       -0.03871083873450
H           -1.61141858372527        1.10954497514041        0.01271871605966
H            5.72654841322271        3.73043987398947        0.02406952445037
C            1.91283086463268        1.02696763796120       -0.05795079445673
C            3.78153623044769        2.72116949597129        0.00283516129763
F            2.19556348753254       -1.35003321807665       -0.04775497277542
C            3.27836902192782        1.44476471052933       -0.06070629524571
H           -0.51894121695591       -1.27811811431167        0.00260782259900
16
 energy: -35.095765020443 gnorm: 0.005670065872 xtb: 6.5.0 (746241f)
C           -0.56387638390097        0.88126568744342       -0.00798252595968
C            0.01466880332927       -0.34804451045868       -0.01500600529110
F            3.00927374459866        3.81592501717759        0.08569192198431
H            6.79768788147126        1.33343847988140       -0.15558480112519
S            4.59609097123213        0.31209709900103       -0.16640544829412
C            5.75558812523272        1.57561195309194       -0.11593058241633
S            0.58678342973519        2.15184204846589       -0.02607099583656
C            5.18579169620596        2.80577666077189       -0.02668248095649
C            1.41753969413290       -0.25599508342948       -0.03381997200549
H           -1.60777126927831        1.11844165752999        0.00621633610437
H            5.72121137479547        3.73542915044957        0.01860767984804
C            1.91363679744327        1.02545425041770       -0.04865884179838
C            3.78232705679731        2.72166202441813        0.00182778340808
F            2.19608659010049       -1.34887470445411       -0.04633241670842
C            3.27833317210075        1.44525032150725       -0.05856030288679
H           -0.51437168399609       -1.28238005181353       -0.00590934806623
16
 energy: -35.095796076254 gnorm: 0.004414608006 xtb: 6.5.0 (746241f)
C           -0.56297306646260        0.88114379943806       -0.00923461701650
C            0.01361104289227       -0.34879603502155       -0.01656890520701
F            3.00644774929669        3.81430600968180        0.08883692999300
H            6.79678350586256        1.33005287454874       -0.15772281297821
S            4.59570729327368        0.31144496127027       -0.16283576622939
C            5.75480690523238        1.57615519497263       -0.11734607785490
S            0.58805333271644        2.15219699099136       -0.02034968653520
C            5.18652689513276        2.80687629297458       -0.02973830813369
C            1.41671008930354       -0.25700191663758       -0.03141596982676
H           -1.60670790697851        1.12286552656563        0.00134463114594
H            5.71988081776586        3.73797517959874        0.01307935107068
C            1.91387842983772        1.02470923734410       -0.04198092472019
C            3.78296831888327        2.72229619125874        0.00213495583129
F            2.19824908936360       -1.34818967740694       -0.04567665229526
C            3.27867778365214        1.44516325292509       -0.05570944973266
H           -0.51362027977179       -1.28429788250366       -0.01141669751112
16
 energy: -35.095819230071 gnorm: 0.003708496703 xtb: 6.5.0 (746241f)
C           -0.56286975177638        0.88119885275683       -0.01054269362779
C            0.01245739371084       -0.34908027927189       -0.01845047609362
F            3.00233473545544        3.81207288267364        0.09162895261477
H            6.79684459597965        1.32898514972483       -0.15983547893902
S            4.59579218184173        0.31047969580697       -0.15803731776854
C            5.75483337420651        1.57657609372143       -0.11837245313001
S            0.58917034073345        2.15295957664768       -0.01546227392914
C            5.18717347846062        2.80748176023248       -0.03243792197280
C            1.41610029064854       -0.25790524859554       -0.03063062648025
H           -1.60652667268749        1.12504766979102       -0.00235134991885
H            5.72023321736418        3.73897619331995        0.00665460297410
C            1.91401620735876        1.02416536562546       -0.03606428041108
C            3.78331108254234        2.72275200307360        0.00308186896785
F            2.20173962217384       -1.34697436156637       -0.04558987979902
C            3.27921380126888        1.44475588552526       -0.05213969524447
H           -0.51482389728092       -1.28459123946533       -0.01605097724214
16
 energy: -35.095835545455 gnorm: 0.003170990578 xtb: 6.5.0 (746241f)
C           -0.56297833884614        0.88162921211141       -0.01111236700805
C            0.01184329216336       -0.34883538912173       -0.02022384754054
F            2.99839043631049        3.80973738969633        0.09234602653817
H            6.79722842038738        1.32989585571178       -0.16089759138190
S            4.59584005155870        0.30978084273631       -0.15342949950401
C            5.75513024045549        1.57666442285615       -0.11836743525323
S            0.59056875848946        2.15352496621746       -0.01238333711526
C            5.18715649165875        2.80751702221126       -0.03401177401928
C            1.41587878916685       -0.25851742417301       -0.03154399523153
H           -1.60653636811775        1.12534989529551       -0.00326611896386
H            5.72118461443790        3.73858078828325        0.00130390757249
C            1.91417622458063        1.02370665483362       -0.03224983141873
C            3.78319415035367        2.72281382411880        0.00391482048169
F            2.20512843284751       -1.34562107184368       -0.04623630794463
C            3.27972390619592        1.44415086434920       -0.04908191929639
H           -0.51692910164222       -1.28347785328265       -0.01936072991491
16
 energy: -35.095848111076 gnorm: 0.002336432332 xtb: 6.5.0 (746241f)
C           -0.56275990366842        0.88248666982551       -0.01064332342096
C            0.01185276895425       -0.34823968120088       -0.02182480698669
F            2.99499604619793        3.80749578912491        0.09044758240127
H            6.79745151906301        1.33184284422035       -0.16064343002598
S            4.59560706632743        0.30949303894527       -0.14923349265568
C            5.75525785687083        1.57646181821342       -0.11728069186553
S            0.59257185386585        2.15365263277625       -0.01067612619259
C            5.18642283044783        2.80723412143055       -0.03465920313028
C            1.41591539024873       -0.25898519172169       -0.03367402961418
H           -1.60618528496495        1.12492527086204       -0.00137697120852
H            5.72189714542133        3.73751011632424       -0.00253184252552
C            1.91440579507595        1.02317477814146       -0.03019155460521
C            3.78269058672982        2.72252675977191        0.00420085177588
F            2.20785961025528       -1.34442433326001       -0.04774283111176
C            3.28017100637979        1.44334036297010       -0.04678533073046
H           -0.51915428720464       -1.28159499642343       -0.02198480010378
16
 energy: -35.095854636047 gnorm: 0.001574214478 xtb: 6.5.0 (746241f)
C           -0.56205498249860        0.88339092911914       -0.00938284974949
C            0.01231518425507       -0.34770824317561       -0.02270142569642
F            2.99332889204953        3.80619235962640        0.08685446388204
H            6.79728316488361        1.33343253844384       -0.15938221961284
S            4.59526263838937        0.30957913138819       -0.14673038550114
C            5.75500681856279        1.57617717847734       -0.11576882964925
S            0.59438051876761        2.15336029394682       -0.01030206032111
C            5.18544188821451        2.80698470383432       -0.03457577675803
C            1.41604373591117       -0.25928155182437       -0.03569619846306
H           -1.60538701245121        1.12473808923415        0.00194950793526
H            5.72177533124767        3.73675677018010       -0.00365120851421
C            1.91459144660080        1.02272352519439       -0.02996699560568
C            3.78209727635164        2.72207337401695        0.00378905948059
F            2.20882834334059       -1.34394291611483       -0.04963616857354
C            3.28042424107706        1.44256022438005       -0.04588595990845
H           -0.52033748470160       -1.28013640672688       -0.02351295294467
16
 energy: -35.095857746250 gnorm: 0.001191305532 xtb: 6.5.0 (746241f)
C           -0.56081362320553        0.88430899327829       -0.00754894534866
C            0.01294194637344       -0.34734961039259       -0.02312815258771
F            2.99261893283771        3.80544327325858        0.08191205704067
H            6.79680125182376        1.33443269973964       -0.15749585555904
S            4.59507862520518        0.30971354643282       -0.14485349110498
C            5.75441849810074        1.57595335719294       -0.11406920694698
S            0.59594765965929        2.15294437143886       -0.01027219843432
C            5.18443245461558        2.80692340350597       -0.03431411518185
C            1.41614475931785       -0.25956681272561       -0.03742682086131
H           -1.60411398407438        1.12521636285999        0.00597842222133
H            5.72088622385552        3.73661643959373       -0.00310865775099
C            1.91468900353616        1.02235096209942       -0.03055118659700
C            3.78146594064130        2.72150275040160        0.00286345441780
F            2.20859455822837       -1.34398876694624       -0.05227965358352
C            3.28061572285037        1.44162540893763       -0.04568644493941
H           -0.52070796976536       -1.27922637867501       -0.02461920478402
16
 energy: -35.095859187469 gnorm: 0.000861659634 xtb: 6.5.0 (746241f)
C           -0.56039568987686        0.88438368947388       -0.00706074642231
C            0.01293825920736       -0.34745125450797       -0.02302801920753
F            2.99263876455519        3.80545544152261        0.08058185228733
H            6.79667930017982        1.33415698970042       -0.15695913436096
S            4.59541216003750        0.30956047283513       -0.14433903457696
C            5.75424745344208        1.57604974664145       -0.11380854540657
S            0.59588696259461        2.15306297685310       -0.00989659783950
C            5.18441750612585        2.80706854974151       -0.03440996259044
C            1.41611810903779       -0.25964611607020       -0.03750804234064
H           -1.60374562443929        1.12575651283470        0.00659415883598
H            5.72041477265346        3.73703947957206       -0.00266768007042
C            1.91460387821909        1.02240996539078       -0.03066861960904
C            3.78137353784967        2.72137132181023        0.00251418621523
F            2.20821170596774       -1.34417329053542       -0.05351891299519
C            3.28069056903124        1.44129543303829       -0.04575025352033
H           -0.52049166458523       -1.27943991830057       -0.02467464839864
