[Molden Format]
[Title]
[Atoms] AU
C      1     6 -0.23372230804740E+01 -0.26286239097083E+01 -0.90553762264515E-02
C      2     6 -0.52564382878199E-02 -0.13516822202717E+01 -0.78663160772061E-02
C      3     6  0.23256158593887E+01 -0.26306153287919E+01 -0.72711749088823E-02
C      4     6  0.46102259289587E+01 -0.13042425018638E+01 -0.60534869331727E-02
C      5     6  0.46113370296679E+01  0.12980554990379E+01 -0.54199371347136E-02
C      6     6  0.23278601622433E+01  0.26263773653547E+01 -0.60147794754475E-02
C      7     6 -0.41033386696560E-02  0.13494363285309E+01 -0.72477279419691E-02
C      8     6 -0.23349784256267E+01  0.26283704049020E+01 -0.79078397063568E-02
C      9     6 -0.46195925629294E+01  0.13019959402100E+01 -0.90923921197789E-02
C     10     6 -0.46207045060510E+01 -0.13003005539458E+01 -0.96494762769029E-02
H     11     1 -0.23501769620012E+01 -0.46802672651939E+01 -0.95203703223211E-02
H     12     1  0.23368148842852E+01 -0.46822685077127E+01 -0.77624222618269E-02
H     13     1  0.63839680228409E+01 -0.23416060142879E+01 -0.56136702007959E-02
H     14     1  0.63859689970276E+01  0.23338949312395E+01 -0.44705781371498E-02
H     15     1  0.23408135003481E+01  0.46780214202479E+01 -0.55197712007317E-02
H     16     1 -0.23461836659577E+01  0.46800228573485E+01 -0.74632095984813E-02
H     17     1 -0.63933350708988E+01  0.23393568383015E+01 -0.95706748486068E-02
H     18     1 -0.63953321190223E+01 -0.23361453529304E+01 -0.10561077601877E-01
[GTO]
           1 0
 s           4   1.00000000000000     
   51.0493630955799      -0.163120632101274     
   8.79112274068875      -0.199110245810007     
  0.706404222589298       0.318820477536558     
  0.269228134134116       0.127065041842404     
 p           4   1.00000000000000     
   5.82636561408000       0.737164515452096     
   1.51068960187200       0.682163716148503     
  0.532564832880000       0.357830539292537     
  0.212023236906000       5.398303027584788E-002
 
           2 0
 s           4   1.00000000000000     
   51.0493630955799      -0.163120632101274     
   8.79112274068875      -0.199110245810007     
  0.706404222589298       0.318820477536558     
  0.269228134134116       0.127065041842404     
 p           4   1.00000000000000     
   5.82636561408000       0.737164515452096     
   1.51068960187200       0.682163716148503     
  0.532564832880000       0.357830539292537     
  0.212023236906000       5.398303027584788E-002
 
           3 0
 s           4   1.00000000000000     
   51.0493630955799      -0.163120632101274     
   8.79112274068875      -0.199110245810007     
  0.706404222589298       0.318820477536558     
  0.269228134134116       0.127065041842404     
 p           4   1.00000000000000     
   5.82636561408000       0.737164515452096     
   1.51068960187200       0.682163716148503     
  0.532564832880000       0.357830539292537     
  0.212023236906000       5.398303027584788E-002
 
           4 0
 s           4   1.00000000000000     
   51.0493630955799      -0.163120632101274     
   8.79112274068875      -0.199110245810007     
  0.706404222589298       0.318820477536558     
  0.269228134134116       0.127065041842404     
 p           4   1.00000000000000     
   5.82636561408000       0.737164515452096     
   1.51068960187200       0.682163716148503     
  0.532564832880000       0.357830539292537     
  0.212023236906000       5.398303027584788E-002
 
           5 0
 s           4   1.00000000000000     
   51.0493630955799      -0.163120632101274     
   8.79112274068875      -0.199110245810007     
  0.706404222589298       0.318820477536558     
  0.269228134134116       0.127065041842404     
 p           4   1.00000000000000     
   5.82636561408000       0.737164515452096     
   1.51068960187200       0.682163716148503     
  0.532564832880000       0.357830539292537     
  0.212023236906000       5.398303027584788E-002
 
           6 0
 s           4   1.00000000000000     
   51.0493630955799      -0.163120632101274     
   8.79112274068875      -0.199110245810007     
  0.706404222589298       0.318820477536558     
  0.269228134134116       0.127065041842404     
 p           4   1.00000000000000     
   5.82636561408000       0.737164515452096     
   1.51068960187200       0.682163716148503     
  0.532564832880000       0.357830539292537     
  0.212023236906000       5.398303027584788E-002
 
           7 0
 s           4   1.00000000000000     
   51.0493630955799      -0.163120632101274     
   8.79112274068875      -0.199110245810007     
  0.706404222589298       0.318820477536558     
  0.269228134134116       0.127065041842404     
 p           4   1.00000000000000     
   5.82636561408000       0.737164515452096     
   1.51068960187200       0.682163716148503     
  0.532564832880000       0.357830539292537     
  0.212023236906000       5.398303027584788E-002
 
           8 0
 s           4   1.00000000000000     
   51.0493630955799      -0.163120632101274     
   8.79112274068875      -0.199110245810007     
  0.706404222589298       0.318820477536558     
  0.269228134134116       0.127065041842404     
 p           4   1.00000000000000     
   5.82636561408000       0.737164515452096     
   1.51068960187200       0.682163716148503     
  0.532564832880000       0.357830539292537     
  0.212023236906000       5.398303027584788E-002
 
           9 0
 s           4   1.00000000000000     
   51.0493630955799      -0.163120632101274     
   8.79112274068875      -0.199110245810007     
  0.706404222589298       0.318820477536558     
  0.269228134134116       0.127065041842404     
 p           4   1.00000000000000     
   5.82636561408000       0.737164515452096     
   1.51068960187200       0.682163716148503     
  0.532564832880000       0.357830539292537     
  0.212023236906000       5.398303027584788E-002
 
          10 0
 s           4   1.00000000000000     
   51.0493630955799      -0.163120632101274     
   8.79112274068875      -0.199110245810007     
  0.706404222589298       0.318820477536558     
  0.269228134134116       0.127065041842404     
 p           4   1.00000000000000     
   5.82636561408000       0.737164515452096     
   1.51068960187200       0.682163716148503     
  0.532564832880000       0.357830539292537     
  0.212023236906000       5.398303027584788E-002
 
          11 0
 s           3   1.00000000000000     
   3.37022769753360       0.273591105889083     
  0.613891182214980       0.264605406538605     
  0.166142911484160       8.246594753408230E-002
 
          12 0
 s           3   1.00000000000000     
   3.37022769753360       0.273591105889083     
  0.613891182214980       0.264605406538605     
  0.166142911484160       8.246594753408230E-002
 
          13 0
 s           3   1.00000000000000     
   3.37022769753360       0.273591105889083     
  0.613891182214980       0.264605406538605     
  0.166142911484160       8.246594753408230E-002
 
          14 0
 s           3   1.00000000000000     
   3.37022769753360       0.273591105889083     
  0.613891182214980       0.264605406538605     
  0.166142911484160       8.246594753408230E-002
 
          15 0
 s           3   1.00000000000000     
   3.37022769753360       0.273591105889083     
  0.613891182214980       0.264605406538605     
  0.166142911484160       8.246594753408230E-002
 
          16 0
 s           3   1.00000000000000     
   3.37022769753360       0.273591105889083     
  0.613891182214980       0.264605406538605     
  0.166142911484160       8.246594753408230E-002
 
          17 0
 s           3   1.00000000000000     
   3.37022769753360       0.273591105889083     
  0.613891182214980       0.264605406538605     
  0.166142911484160       8.246594753408230E-002
 
          18 0
 s           3   1.00000000000000     
   3.37022769753360       0.273591105889083     
  0.613891182214980       0.264605406538605     
  0.166142911484160       8.246594753408230E-002
 
[MO]
Sym=     1a
Ene=  -0.448399256384237     
Spin= Alpha
Occup=     2.00000000
           1  0.190854307066127     
           2  2.025543723055992E-002
           3  6.528968784923839E-002
           4  2.227031788553759E-005
           5  0.303031301959631     
           6  1.987937087797249E-005
           7  4.200234685602467E-002
           8  9.466206305919988E-006
           9  0.190859886238913     
          10 -2.019827415229174E-002
          11  6.530878571221997E-002
          12  8.044570289667964E-006
          13  0.187344571687661     
          14 -5.043993720522729E-002
          15  3.431367020535935E-002
          16 -1.148567703164760E-005
          17  0.187344748123370     
          18 -5.046928919695590E-002
          19 -3.427052318263826E-002
          20 -2.852574918404397E-005
          21  0.190860281022567     
          22 -2.025402191393097E-002
          23 -6.529157322335315E-002
          24 -2.359782511827163E-005
          25  0.303031479079447     
          26 -1.587919702282948E-005
          27 -4.200224694007409E-002
          28 -9.818978333309256E-006
          29  0.190854280501796     
          30  2.019971410155214E-002
          31 -6.530696757461804E-002
          32 -5.729881562300100E-006
          33  0.187336733992508     
          34  5.043826234687009E-002
          35 -3.431235983053108E-002
          36  1.252544001819221E-005
          37  0.187336704134353     
          38  5.046756853005595E-002
          39  3.426928288871318E-002
          40  2.688322733494245E-005
          41  4.168025014556671E-002
          42  4.168147078163936E-002
          43  4.354043466450015E-002
          44  4.354051798640048E-002
          45  4.168152206644421E-002
          46  4.168027892851395E-002
          47  4.353851377886475E-002
          48  4.353851300643399E-002
Sym=     2a
Ene=  -0.441491494960724     
Spin= Alpha
Occup=     2.00000000
           1 -0.166616524971600     
           2  5.342622756417600E-002
           3 -5.311427463551901E-002
           4  9.150697073478650E-006
           5 -4.686844516854214E-006
           6  0.109485394754154     
           7 -4.740091649625948E-005
           8  4.264559399570691E-005
           9  0.166610591955022     
          10  5.347224228949243E-002
          11  5.306666123985936E-002
          12  3.386664342575373E-005
          13  0.278306108481068     
          14 -3.807226441266805E-002
          15  5.267127598368147E-002
          16 -2.177349550239738E-006
          17  0.278306403609339     
          18 -3.811730808521525E-002
          19 -5.263864150090330E-002
          20 -2.818382891159468E-005
          21  0.166611063424668     
          22  5.342701097154151E-002
          23 -5.311237142935206E-002
          24  8.621999343643120E-006
          25 -4.510256819101298E-006
          26  0.109485472696259     
          27 -4.600572356545703E-005
          28  4.362204308359425E-005
          29 -0.166616341322146     
          30  5.347155423044547E-002
          31  5.306860648998851E-002
          32  3.235290582471555E-005
          33 -0.278312615638586     
          34 -3.807349973268394E-002
          35  5.267268998922403E-002
          36 -3.707073483603967E-006
          37 -0.278312659954613     
          38 -3.811854992939829E-002
          39 -5.264013627862010E-002
          40 -2.591917634616454E-005
          41 -3.708943333586370E-002
          42  3.708805060840646E-002
          43  7.912679692563078E-002
          44  7.912698533854896E-002
          45  3.708818099616196E-002
          46 -3.708946439926735E-002
          47 -7.912858861093017E-002
          48 -7.912861371836374E-002
Sym=     3a
Ene=  -0.424313227247050     
Spin= Alpha
Occup=     2.00000000
           1  0.259928761397926     
           2  3.570948226805582E-002
           3  6.900740499809001E-003
           4  1.516684941775361E-005
           5  0.230222347373669     
           6 -5.692040334329162E-005
           7 -0.136198876406227     
           8 -3.135575454947645E-005
           9  0.259933938627327     
          10 -3.570244815139504E-002
          11  6.931613145193364E-003
          12 -1.165418618657612E-005
          13  0.110398154012815     
          14 -4.535452162220621E-002
          15 -6.878016027619688E-002
          16 -3.422141060649909E-005
          17 -0.110396989773436     
          18  4.529590939676584E-002
          19 -6.881906471607761E-002
          20  1.732913185356626E-006
          21 -0.259933825531090     
          22  3.570876779949484E-002
          23  6.901013052733388E-003
          24  1.609343011715264E-005
          25 -0.230222943175783     
          26 -5.935097595806215E-005
          27 -0.136198844651437     
          28 -3.094540611213618E-005
          29 -0.259928963208465     
          30 -3.570382568971719E-002
          31  6.931282949717038E-003
          32 -1.356030090782372E-005
          33 -0.110393753324647     
          34 -4.535347534405251E-002
          35 -6.877833756379371E-002
          36 -3.292392586580553E-005
          37  0.110394361652720     
          38  4.529461969324664E-002
          39 -6.881677340316140E-002
          40  2.456112880600615E-006
          41  0.100478273216559     
          42  0.100480170531657     
          43  4.365014343902621E-002
          44 -4.364947876442892E-002
          45 -0.100480058140192     
          46 -0.100478372844673     
          47 -4.364832293821461E-002
          48  4.364855102409555E-002
Sym=     4a
Ene=  -0.422885372049734     
Spin= Alpha
Occup=     2.00000000
           1 -3.986196771073186E-002
           2 -0.124215988789129     
           3 -1.555394140401647E-003
           4 -4.878369152328305E-005
           5 -0.273140295421918     
           6 -1.548157130294129E-005
           7 -3.664006155366986E-002
           8 -8.186705111458268E-006
           9 -3.986175044412916E-002
          10  0.124214873248125     
          11 -1.661381910361205E-003
          12  4.816197856922345E-005
          13  0.255376062216819     
          14  4.382579047660572E-002
          15  6.415466084414428E-002
          16  3.278318634741942E-005
          17  0.255376796571450     
          18  4.377086467299225E-002
          19 -6.419170445362507E-002
          20  1.545290024935471E-006
          21 -3.986070631933968E-002
          22  0.124216386165662     
          23  1.555258658670424E-003
          24  4.977985485391045E-005
          25 -0.273139678836133     
          26  1.585394454817845E-005
          27  3.664042870933584E-002
          28  8.647736105611573E-006
          29 -3.986148290143036E-002
          30 -0.124214348115314     
          31  1.661512528714301E-003
          32 -4.889924352856229E-005
          33  0.255376095490302     
          34 -4.382581305641559E-002
          35 -6.415458088510113E-002
          36 -3.102585156067782E-005
          37  0.255376061000467     
          38 -4.377101369378630E-002
          39  6.419206256045977E-002
          40 -3.483862049059581E-006
          41 -1.431924988957384E-002
          42 -1.431930250286427E-002
          43  0.109023817909918     
          44  0.109024382124889     
          45 -1.431882349643208E-002
          46 -1.431895050050720E-002
          47  0.109023970500169     
          48  0.109023981411002     
Sym=     5a
Ene=  -0.411152377795228     
Spin= Alpha
Occup=     2.00000000
           1 -0.243867426877413     
           2  6.808061242378720E-002
           3 -7.576359699203107E-003
           4  2.455769722219208E-005
           5 -2.608105039357861E-006
           6  0.105746859246093     
           7 -4.375436711230697E-005
           8  3.999827962100939E-005
           9  0.243862487386608     
          10  6.808859891326766E-002
          11  7.518329393718762E-003
          12  2.846233269667041E-005
          13  0.189904801764315     
          14 -4.450969260785061E-002
          15 -0.114656938048420     
          16 -4.515695149991878E-005
          17 -0.189904097864242     
          18  4.441194815285260E-002
          19 -0.114694910332675     
          20 -9.734149754576077E-006
          21 -0.243862434441072     
          22 -6.808194560033928E-002
          23  7.576441445842745E-003
          24 -2.560271492946994E-005
          25  2.307382677645626E-006
          26 -0.105746932076571     
          27  4.670944366390871E-005
          28 -4.334721933342949E-005
          29  0.243867667138661     
          30 -6.808720837260891E-002
          31 -7.518168863638945E-003
          32 -2.842878467713828E-005
          33  0.189906070717562     
          34  4.451045250021211E-002
          35  0.114658143565315     
          36  4.226811663103337E-005
          37 -0.189905933530852     
          38 -4.441252739691324E-002
          39  0.114695944597618     
          40  7.704637402756238E-006
          41 -9.555238850746713E-002
          42  9.555019765268866E-002
          43  9.315257155494755E-002
          44 -9.315187792155299E-002
          45 -9.555016536126343E-002
          46  9.555269092504856E-002
          47  9.315309914743852E-002
          48 -9.315298775072145E-002
Sym=     6a
Ene=  -0.389638775167412     
Spin= Alpha
Occup=     2.00000000
           1  0.211182224856763     
           2  3.474687423276527E-002
           3  2.339947265003924E-003
           4  1.425041424755693E-005
           5  1.447650623508461E-006
           6 -0.184402157278144     
           7  7.877496276667071E-005
           8 -7.119359088541367E-005
           9 -0.211181634872027     
          10  3.474356317723204E-002
          11 -2.369073631111188E-003
          12  1.316743796222222E-005
          13  0.150046528323497     
          14  0.149858005771504     
          15  9.225605218134188E-002
          16  8.132372874442632E-005
          17  0.150048529228856     
          18  0.149779571203390     
          19 -9.238291586659517E-002
          20  3.692094768863250E-005
          21 -0.211181569689262     
          22  3.474707226545019E-002
          23  2.339396997403632E-003
          24  1.396757174320387E-005
          25 -1.606101292289019E-007
          26 -0.184402142651132     
          27  7.783083853353508E-005
          28 -7.429506979428692E-005
          29  0.211182094721632     
          30  3.474348276917542E-002
          31 -2.369611745909893E-003
          32  1.316259535503226E-005
          33 -0.150046001462892     
          34  0.149858153214063     
          35  9.225551882712352E-002
          36  7.863459701711406E-005
          37 -0.150047472492355     
          38  0.149779431243504     
          39 -9.238268152720619E-002
          40  3.844953086404673E-005
          41  8.903207841416719E-002
          42 -8.903216044057090E-002
          43  0.124950821301490     
          44  0.124952874524004     
          45 -8.903205191626158E-002
          46  8.903211418275120E-002
          47 -0.124950942316835     
          48 -0.124952007906516     
Sym=     7a
Ene=  -0.384520290214939     
Spin= Alpha
Occup=     2.00000000
           1  1.909431792179829E-003
           2 -0.183406677422499     
           3  3.221159691300209E-004
           4 -7.075601215693640E-005
           5 -0.203221958128700     
           6  4.771781082071933E-005
           7  0.113984033482350     
           8  2.632081706570264E-005
           9  1.906996944118803E-003
          10  0.183407545348308     
          11  1.655469125607553E-004
          12  7.128430007267961E-005
          13  0.208952336319883     
          14  1.849381163574939E-002
          15 -0.122104529363692     
          16 -2.262447549531759E-005
          17 -0.208950944394567     
          18 -1.859671751399697E-002
          19 -0.122089204027489     
          20 -3.688030710453439E-005
          21 -1.908788007789465E-003
          22 -0.183407005220025     
          23  3.221333107059910E-004
          24 -7.340522018337578E-005
          25  0.203221989570972     
          26  4.810359968690857E-005
          27  0.113983963467334     
          28  2.582770632176673E-005
          29 -1.907796715099029E-003
          30  0.183407159461037     
          31  1.653353607506449E-004
          32  7.334731826285718E-005
          33 -0.208952508065156     
          34  1.849367936013609E-002
          35 -0.122104739985277     
          36 -1.856240935533850E-005
          37  0.208951287989100     
          38 -1.859658240656870E-002
          39 -0.122089570295997     
          40 -3.337671765911875E-005
          41  2.232073317718148E-003
          42  2.230775584904804E-003
          43  0.150730985179570     
          44 -0.150729394201974     
          45 -2.231738345037619E-003
          46 -2.231665169116430E-003
          47 -0.150731048576137     
          48  0.150729902225095     
Sym=     8a
Ene=  -0.375908224214593     
Spin= Alpha
Occup=     2.00000000
           1  0.191718777728481     
           2 -2.764034226063833E-002
           3 -0.130581985903236     
           4 -4.030586836168308E-005
           5 -0.151226576128070     
           6 -9.254431516857059E-005
           7 -0.215932735731654     
           8 -4.980604258819747E-005
           9  0.191718203624207     
          10  2.752884414699236E-002
          11 -0.130606181997094     
          12 -2.013550044163720E-005
          13 -2.589454474030069E-002
          14 -4.489483362631396E-002
          15 -0.108719280965329     
          16 -4.397903993233592E-005
          17 -2.589442373995515E-002
          18 -4.480228631591072E-002
          19  0.108757676202027     
          20  8.136615068052985E-006
          21  0.191718512680517     
          22  2.764051891516776E-002
          23  0.130582661205074     
          24  4.155274462244718E-005
          25 -0.151226565302713     
          26  9.198712143254437E-005
          27  0.215932754337220     
          28  4.915711983768101E-005
          29  0.191718646805615     
          30 -2.752870736993972E-002
          31  0.130605567317360     
          32  1.813048235660980E-005
          33 -2.589480876816935E-002
          34  4.489555229364121E-002
          35  0.108718738872823     
          36  4.102951995557199E-005
          37 -2.589443464721872E-002
          38  4.480274804626689E-002
          39 -0.108757245905074     
          40 -6.473698676484871E-006
          41  0.183177281160302     
          42  0.183177501142163     
          43  1.531798897150831E-003
          44  1.531251519889575E-003
          45  0.183177582550404     
          46  0.183177293763932     
          47  1.530934413851366E-003
          48  1.531120489077434E-003
Sym=     9a
Ene=  -0.341284503180059     
Spin= Alpha
Occup=     2.00000000
           1  8.338213677294466E-002
           2 -5.296221831236599E-002
           3 -0.175532475859430     
           4 -5.893513491402182E-005
           5 -6.844706804212909E-007
           6  9.805672374379182E-002
           7 -4.202669549030048E-005
           8  3.945166564577805E-005
           9 -8.338148444113583E-002
          10 -5.281140329940939E-002
          11  0.175577698840185     
          12  2.244303631604810E-005
          13  1.769212735175948E-002
          14 -0.105668915538770     
          15  0.180286694592611     
          16  2.650744733025961E-006
          17  1.779264595219476E-002
          18 -0.105747937807951     
          19 -0.180143089790733     
          20 -8.503016304854366E-005
          21 -8.349770833693326E-002
          22 -5.290206889383231E-002
          23 -0.175553752587918     
          24 -6.339886780001973E-005
          25 -8.663961800050559E-007
          26  9.795830619471567E-002
          27 -4.176045988031178E-005
          28  3.775906088409367E-005
          29  8.349832143316283E-002
          30 -5.275295746853866E-002
          31  0.175599046089350     
          32  1.651559526218752E-005
          33 -1.779336203368490E-002
          34 -0.105592936898570     
          35  0.180233479432217     
          36 -3.092547386273981E-006
          37 -1.769180835459541E-002
          38 -0.105821789175234     
          39 -0.180196935159616     
          40 -8.034553277031750E-005
          41  0.179542646311112     
          42 -0.179542327399275     
          43 -0.149285614594216     
          44 -0.149152485618968     
          45 -0.179617898100600     
          46  0.179618516362429     
          47  0.149151600904488     
          48  0.149285096283773     
Sym=    10a
Ene=  -0.341216890124994     
Spin= Alpha
Occup=     2.00000000
           1 -0.187756875229119     
           2 -9.597256131292460E-002
           3  3.428539098022057E-002
           4 -3.057580813888492E-005
           5  7.546342463083786E-007
           6  0.159239857252926     
           7 -6.827103244772597E-005
           8  5.780294582849404E-005
           9  0.187755539681525     
          10 -9.600327180400467E-002
          11 -3.420334938323952E-002
          12 -4.701772666371656E-005
          13 -0.163204098742062     
          14 -0.120976391832497     
          15  8.650261351906358E-002
          16 -2.643073595055781E-005
          17  0.163192677962008     
          18  0.121117586106836     
          19  8.651047135433700E-002
          20  6.885293340055640E-005
          21 -0.187703791752448     
          22  9.600528674845350E-002
          23 -3.417577603672031E-002
          24  2.866059113041219E-005
          25  4.167885826522290E-007
          26 -0.159300198085449     
          27  6.830099912951398E-005
          28 -6.797136851361967E-005
          29  0.187704676474019     
          30  9.603545028218333E-002
          31  3.409523003598692E-002
          32  4.435379985431647E-005
          33 -0.163193416416254     
          34  0.121042081777488     
          35 -8.661437487923847E-002
          36  2.935290116028618E-005
          37  0.163204436681262     
          38 -0.121052260280690     
          39 -8.639939497042498E-002
          40 -6.525752948481994E-005
          41 -0.122014061213269     
          42  0.122013401263997     
          43 -0.215098442020748     
          44  0.215191780363692     
          45 -0.121901305186540     
          46  0.121903035184916     
          47 -0.215191286379366     
          48  0.215100213799499     
Sym=    11a
Ene=  -0.332471603554410     
Spin= Alpha
Occup=     2.00000000
           1  5.220545709753457E-002
           2 -0.142575632207048     
           3  8.704181881898049E-002
           4 -3.605359497898072E-005
           5 -0.149061768455144     
           6  1.663751376448164E-005
           7  3.714177418799522E-002
           8  8.934186546967436E-006
           9  5.220701063302127E-002
          10  0.142648915108473     
          11  8.691907454818276E-002
          12  7.648427150755787E-005
          13  1.537914116636474E-002
          14 -0.258244961216923     
          15  2.470960003279514E-002
          16 -9.548078157257123E-005
          17  1.538013952979582E-002
          18 -0.258265627162937     
          19 -2.448838183416639E-002
          20 -1.079522955352580E-004
          21  5.220556736275704E-002
          22  0.142575967898717     
          23 -8.704099426945999E-002
          24  3.668241947646762E-005
          25 -0.149062278475982     
          26 -1.657570408121104E-005
          27 -3.714200612007337E-002
          28 -8.046256057727915E-006
          29  5.220702745278035E-002
          30 -0.142649143847934     
          31 -8.691938716196074E-002
          32 -7.585777650169557E-005
          33  1.537953463544433E-002
          34  0.258246107741579     
          35 -2.471100651041450E-002
          36  9.572246148210775E-005
          37  1.538081096894049E-002
          38  0.258266198063879     
          39  2.448968534773511E-002
          40  1.056281059090981E-004
          41 -4.832654867147395E-002
          42 -4.832518144054580E-002
          43 -0.203093323735351     
          44 -0.203092810318655     
          45 -4.832589984589770E-002
          46 -4.832501071779850E-002
          47 -0.203094651471667     
          48 -0.203092923995446     
Sym=    12a
Ene=  -0.308060699309934     
Spin= Alpha
Occup=     2.00000000
           1 -5.022321067620217E-002
           2  7.152718250996204E-002
           3  0.226704024169735     
           4  7.991634613760665E-005
           5  0.226684864922606     
           6 -2.973120398120259E-005
           7 -6.830273493732641E-002
           8 -1.370099780791272E-005
           9 -5.022420818819391E-002
          10 -7.133238114852690E-002
          11  0.226766249517527     
          12  2.846832037016837E-005
          13  0.100586242571959     
          14  3.518815129881254E-002
          15 -2.898855104722356E-002
          16  7.393446819609097E-006
          17 -0.100586357022667     
          18 -3.521273121444597E-002
          19 -2.895537574832447E-002
          20 -2.067594438503039E-005
          21  5.022391897360959E-002
          22  7.152777867126492E-002
          23  0.226705206263894     
          24  8.307713834676726E-005
          25 -0.226683933693232     
          26 -2.926912859449539E-005
          27 -6.830528619064159E-002
          28 -1.443710660449465E-005
          29  5.022320896771643E-002
          30 -7.133391939038880E-002
          31  0.226765176110739     
          32  2.094482489434209E-005
          33 -0.100585827433978     
          34  3.518739190610361E-002
          35 -2.898611444747650E-002
          36  8.706381950417647E-006
          37  0.100585198472421     
          38 -3.521305611832302E-002
          39 -2.895764239021888E-002
          40 -1.797594273981594E-005
          41 -0.259150516521048     
          42 -0.259152240522104     