      -----------------------------------------------------------      
     |                   =====================                   |     
     |                           x T B                           |     
     |                   =====================                   |     
     |                         S. Grimme                         |     
     |          Mulliken Center for Theoretical Chemistry        |     
     |                    University of Bonn                     |     
      -----------------------------------------------------------      

   * xtb version 6.5.0 (746241f) compiled by 'ehlert@majestix' on 2022-05-15

   xtb is free software: you can redistribute it and/or modify it under
   the terms of the GNU Lesser General Public License as published by
   the Free Software Foundation, either version 3 of the License, or
   (at your option) any later version.
   
   xtb is distributed in the hope that it will be useful,
   but WITHOUT ANY WARRANTY; without even the implied warranty of
   MERCHANTABILITY or FITNESS FOR A PARTICULAR PURPOSE.  See the
   GNU Lesser General Public License for more details.
   
   Cite this work as:
   * C. Bannwarth, E. Caldeweyher, S. Ehlert, A. Hansen, P. Pracht,
     J. Seibert, S. Spicher, S. Grimme, WIREs Comput. Mol. Sci., 2020, 11,
     e01493. DOI: 10.1002/wcms.1493
   
   for GFN2-xTB:
   * C. Bannwarth, S. Ehlert and S. Grimme., J. Chem. Theory Comput., 2019,
     15, 1652-1671. DOI: 10.1021/acs.jctc.8b01176
   for GFN1-xTB:
   * S. Grimme, C. Bannwarth, P. Shushkov, J. Chem. Theory Comput., 2017,
     13, 1989-2009. DOI: 10.1021/acs.jctc.7b00118
   for GFN0-xTB:
   * P. Pracht, E. Caldeweyher, S. Ehlert, S. Grimme, ChemRxiv, 2019, preprint.
     DOI: 10.26434/chemrxiv.8326202.v1
   for GFN-FF:
   * S. Spicher and S. Grimme, Angew. Chem. Int. Ed., 2020, 59, 15665-15673.
     DOI: 10.1002/anie.202004239
   
   for ALPB and GBSA implicit solvation:
   * S. Ehlert, M. Stahn, S. Spicher, S. Grimme, J. Chem. Theory Comput.,
     2021, 17, 4250-4261. DOI: 10.1021/acs.jctc.1c00471
   
   for DFT-D4:
   * E. Caldeweyher, C. Bannwarth and S. Grimme, J. Chem. Phys., 2017,
     147, 034112. DOI: 10.1063/1.4993215
   * E. Caldeweyher, S. Ehlert, A. Hansen, H. Neugebauer, S. Spicher,
     C. Bannwarth and S. Grimme, J. Chem. Phys., 2019, 150, 154122.
     DOI: 10.1063/1.5090222
   * E. Caldeweyher, J.-M. Mewes, S. Ehlert and S. Grimme, Phys. Chem. Chem. Phys.
     2020, 22, 8499-8512. DOI: 10.1039/D0CP00502A
   
   for sTDA-xTB:
   * S. Grimme and C. Bannwarth, J. Chem. Phys., 2016, 145, 054103.
     DOI: 10.1063/1.4959605
   
   in the mass-spec context:
   * V. Asgeirsson, C. Bauer and S. Grimme, Chem. Sci., 2017, 8, 4879.
     DOI: 10.1039/c7sc00601b
   * J. Koopman and S. Grimme, ACS Omega 2019, 4, 12, 15120-15133.
     DOI: 10.1021/acsomega.9b02011
   
   for metadynamics refer to:
   * S. Grimme, J. Chem. Theory Comput., 2019, 155, 2847-2862
     DOI: 10.1021/acs.jctc.9b00143
   
   for SPH calculations refer to:
   * S. Spicher and S. Grimme, J. Chem. Theory Comput., 2021, 17, 1701-1714
     DOI: 10.1021/acs.jctc.0c01306
   
   with help from (in alphabetical order)
   P. Atkinson, C. Bannwarth, F. Bohle, G. Brandenburg, E. Caldeweyher
   M. Checinski, S. Dohm, S. Ehlert, S. Ehrlich, I. Gerasimov, C. Hölzer
   A. Katbashev, J. Koopman, C. Lavigne, S. Lehtola, F. März, M. Müller,
   F. Musil, H. Neugebauer, J. Pisarek, C. Plett, P. Pracht, F. Pultar,
   J. Seibert, P. Shushkov, S. Spicher, M. Stahn, M. Steiner, T. Strunk,
   J. Stückrath, T. Rose, and J. Unsleber
   
 * started run on 2022/07/20 at 14:34:19.647     

           -------------------------------------------------
          |                Calculation Setup                |
           -------------------------------------------------

          program call               : xtb -c -1 -u 1 naphthalene.xyz --opt --molden
          coordinate file            : naphthalene.xyz
          omp threads                :                    16

   ID    Z sym.   atoms
    1    6 C      1-10
    2    1 H      11-18

           -------------------------------------------------
          |                 G F N 2 - x T B                 |
           -------------------------------------------------

        Reference                      10.1021/acs.jctc.8b01176
      * Hamiltonian:
        H0-scaling (s, p, d)           1.850000    2.230000    2.230000
        zeta-weighting                 0.500000
      * Dispersion:
        s8                             2.700000
        a1                             0.520000
        a2                             5.000000
        s9                             5.000000
      * Repulsion:
        kExp                           1.500000    1.000000
        rExp                           1.000000
      * Coulomb:
        alpha                          2.000000
        third order                    shell-resolved
        anisotropic                    true
        a3                             3.000000
        a5                             4.000000
        cn-shift                       1.200000
        cn-exp                         4.000000
        max-rad                        5.000000


          ...................................................
          :                      SETUP                      :
          :.................................................:
          :  # basis functions                  48          :
          :  # atomic orbitals                  48          :
          :  # shells                           28          :
          :  # electrons                        49          :
          :  max. iterations                   250          :
          :  Hamiltonian                  GFN2-xTB          :
          :  restarted?                      false          :
          :  GBSA solvation                  false          :
          :  PC potential                    false          :
          :  electronic temp.          300.0000000     K    :
          :  accuracy                    1.0000000          :
          :  -> integral cutoff          0.2500000E+02      :
          :  -> integral neglect         0.1000000E-07      :
          :  -> SCF convergence          0.1000000E-05 Eh   :
          :  -> wf. convergence          0.1000000E-03 e    :
          :  Broyden damping             0.4000000          :
          ...................................................

 iter      E             dE          RMSdq      gap      omega  full diag
   1    -26.1033783 -0.261034E+02  0.390E+00    1.14       0.0  T
   2    -26.1268600 -0.234817E-01  0.224E+00    0.83       1.0  T
   3    -26.1243200  0.254000E-02  0.934E-01    1.08       1.0  T
   4    -26.1294819 -0.516195E-02  0.249E-01    0.89       1.0  T
   5    -26.1300759 -0.593946E-03  0.524E-02    0.92       1.0  T
   6    -26.1301079 -0.319982E-04  0.234E-02    0.92       1.0  T
   7    -26.1301079 -0.130545E-07  0.256E-03    0.92       9.2  T
   8    -26.1301079 -0.776898E-07  0.935E-04    0.92      25.2  T
   9    -26.1301080 -0.126599E-07  0.428E-04    0.92      55.0  T

   *** convergence criteria satisfied after 9 iterations ***

         #    Occupation            Energy/Eh            Energy/eV
      -------------------------------------------------------------
         1        2.0000           -0.4507911             -12.2667
       ...           ...                  ...                  ...
        19        2.0000           -0.2548770              -6.9356
        20        2.0000           -0.2313849              -6.2963
        21        2.0000           -0.2260514              -6.1512
        22        2.0000           -0.2254103              -6.1337
        23        2.0000           -0.2083972              -5.6708
        24        2.0000           -0.1758889              -4.7862
        25        1.0000           -0.0669745              -1.8225 (HOMO)
        26                         -0.0330393              -0.8990 (LUMO)
        27                          0.0075210               0.2047
        28                          0.0436147               1.1868
        29                          0.1430072               3.8914
        30                          0.2853320               7.7643
       ...                                ...                  ...
        48                          0.9054256              24.6379
      -------------------------------------------------------------
                  HL-Gap            0.0339352 Eh            0.9234 eV
             Fermi-level           -0.0857193 Eh           -2.3325 eV

 SCC (total)                   0 d,  0 h,  0 min,  0.008 sec
 SCC setup                      ...        0 min,  0.000 sec (  1.287%)
 Dispersion                     ...        0 min,  0.000 sec (  1.178%)
 classical contributions        ...        0 min,  0.000 sec (  0.132%)
 integral evaluation            ...        0 min,  0.000 sec (  5.629%)
 iterations                     ...        0 min,  0.006 sec ( 77.546%)
 molecular gradient             ...        0 min,  0.001 sec ( 13.083%)
 printout                       ...        0 min,  0.000 sec (  0.961%)

         :::::::::::::::::::::::::::::::::::::::::::::::::::::
         ::                     SUMMARY                     ::
         :::::::::::::::::::::::::::::::::::::::::::::::::::::
         :: total energy             -25.635807886303 Eh    ::
         :: gradient norm              0.044850101606 Eh/a0 ::
         :: HOMO-LUMO gap              0.923423785968 eV    ::
         ::.................................................::
         :: SCC energy               -26.130107957119 Eh    ::
         :: -> isotropic ES            0.095418297192 Eh    ::
         :: -> anisotropic ES          0.023674604658 Eh    ::
         :: -> anisotropic XC          0.013282582093 Eh    ::
         :: -> dispersion             -0.018698030488 Eh    ::
         :: repulsion energy           0.494263630803 Eh    ::
         :: add. restraining           0.000000000000 Eh    ::
         :: total charge              -1.000000000000 e     ::
         :::::::::::::::::::::::::::::::::::::::::::::::::::::

      ----------------------------------------------------------- 
     |                   =====================                   |
     |                        A N C O P T                        |
     |                   =====================                   |
     |               Approximate Normal Coordinate               |
     |                Rational Function Optimizer                |
      ----------------------------------------------------------- 

          ...................................................
          :                      SETUP                      :
          :.................................................:
          :   optimization level            normal          :
          :   max. optcycles                   200          :
          :   ANC micro-cycles                  20          :
          :   degrees of freedom                48          :
          :.................................................:
          :   RF solver                   davidson          :
          :   write xtbopt.log                true          :
          :   linear?                        false          :
          :   energy convergence         0.5000000E-05 Eh   :
          :   grad. convergence          0.1000000E-02 Eh/α :
          :   maximium RF displ.         1.0000000          :
          :   Hlow (freq-cutoff)         0.1000000E-01      :
          :   Hmax (freq-cutoff)         5.0000000          :
          :   S6 in model hess.         20.0000000          :
          ...................................................

generating ANC from model Hessian ...
Using Lindh-Hessian (1995)
 Shifting diagonal of input Hessian by   4.219069014057261E-003
 Lowest  eigenvalues of input Hessian
    0.000000    0.000000    0.000000    0.000000    0.000000    0.000000
    0.010000    0.010110    0.018561    0.023486    0.023511    0.026260
    0.032947    0.039027    0.063976    0.068968    0.070401    0.082200
 Highest eigenvalues
    1.786307    1.804230    1.819215    1.921715    2.058070    2.121012
 

........................................................................
.............................. CYCLE    1 ..............................
........................................................................
   1    -26.1301080 -0.261301E+02  0.420E-05    0.92       0.0  T
   2    -26.1301080 -0.859757E-12  0.243E-05    0.92     969.4  T
   3    -26.1301080  0.114042E-11  0.105E-05    0.92    2251.3  T
     SCC iter.                  ...        0 min,  0.002 sec
     gradient                   ...        0 min,  0.002 sec
 * total energy  :   -25.6358079 Eh     change       -0.1403407E-08 Eh
   gradient norm :     0.0448480 Eh/α   predicted     0.0000000E+00 (-100.00%)
   displ. norm   :     0.1500917 α      lambda       -0.3277448E-02
   maximum displ.:     0.1372974 α      in ANC's #9, #34, #18, ...

........................................................................
.............................. CYCLE    2 ..............................
........................................................................
   1    -26.1241089 -0.261241E+02  0.199E-01    0.98       0.0  T
   2    -26.1241704 -0.614949E-04  0.144E-01    0.97       1.0  T
   3    -26.1241662  0.424448E-05  0.605E-02    0.98       1.0  T
   4    -26.1242090 -0.427617E-04  0.291E-03    0.98       8.1  T
   5    -26.1242090 -0.188956E-07  0.126E-03    0.98      18.7  T
   6    -26.1242090 -0.177874E-08  0.715E-04    0.98      33.0  T
   7    -26.1242090 -0.501638E-08  0.179E-04    0.98     131.4  T
     SCC iter.                  ...        0 min,  0.003 sec
     gradient                   ...        0 min,  0.001 sec
 * total energy  :   -25.6378331 Eh     change       -0.2025228E-02 Eh
   gradient norm :     0.0160078 Eh/α   predicted    -0.1675641E-02 ( -17.26%)
   displ. norm   :     0.0379674 α      lambda       -0.3290366E-03
   maximum displ.:     0.0298730 α      in ANC's #9, #18, #34, ...

........................................................................
.............................. CYCLE    3 ..............................
........................................................................
   1    -26.1228600 -0.261229E+02  0.611E-02    0.99       0.0  T
   2    -26.1228675 -0.756955E-05  0.446E-02    0.99       1.0  T
   3    -26.1228693 -0.179826E-05  0.203E-02    0.99       1.2  T
   4    -26.1228723 -0.300927E-05  0.763E-04    0.99      30.9  T
   5    -26.1228723 -0.555008E-09  0.457E-04    0.99      51.6  T
   6    -26.1228723 -0.994060E-09  0.174E-04    0.99     135.5  T
     SCC iter.                  ...        0 min,  0.002 sec
     gradient                   ...        0 min,  0.002 sec
 * total energy  :   -25.6380182 Eh     change       -0.1850397E-03 Eh
   gradient norm :     0.0047129 Eh/α   predicted    -0.1647550E-03 ( -10.96%)
   displ. norm   :     0.0088536 α      lambda       -0.2213441E-04
   maximum displ.:     0.0056625 α      in ANC's #17, #18, #9, ...

........................................................................
.............................. CYCLE    4 ..............................
........................................................................
   1    -26.1228408 -0.261228E+02  0.136E-02    0.99       0.0  T
   2    -26.1228409 -0.924002E-07  0.800E-03    0.99       2.9  T
   3    -26.1228407  0.140808E-06  0.339E-03    0.99       6.9  T
   4    -26.1228409 -0.192769E-06  0.196E-04    0.99     120.2  T
   5    -26.1228409 -0.245493E-09  0.126E-04    0.99     186.7  T
     SCC iter.                  ...        0 min,  0.002 sec
     gradient                   ...        0 min,  0.001 sec
 * total energy  :   -25.6380328 Eh     change       -0.1461758E-04 Eh
   gradient norm :     0.0018507 Eh/α   predicted    -0.1106813E-04 ( -24.28%)
   displ. norm   :     0.0099193 α      lambda       -0.5438114E-05
   maximum displ.:     0.0064403 α      in ANC's #17, #9, #18, ...

........................................................................
.............................. CYCLE    5 ..............................
........................................................................
   1    -26.1230817 -0.261231E+02  0.112E-02    0.99       0.0  T
   2    -26.1230817 -0.187676E-07  0.675E-03    0.99       3.5  T
   3    -26.1230816  0.292774E-07  0.125E-03    0.99      18.8  T
   4    -26.1230817 -0.355226E-07  0.222E-04    0.99     106.1  T
   5    -26.1230817 -0.332896E-09  0.747E-05    0.99     315.7  T
     SCC iter.                  ...        0 min,  0.002 sec
     gradient                   ...        0 min,  0.001 sec
 * total energy  :   -25.6380355 Eh     change       -0.2708367E-05 Eh
   gradient norm :     0.0007843 Eh/α   predicted    -0.2719847E-05 (   0.42%)
   displ. norm   :     0.0026127 α      lambda       -0.6569825E-06
   maximum displ.:     0.0019888 α      in ANC's #9, #17, #18, ...

   *** GEOMETRY OPTIMIZATION CONVERGED AFTER 5 ITERATIONS ***

------------------------------------------------------------------------
 total energy gain   :        -0.0022276 Eh       -1.3978 kcal/mol
 total RMSD          :         0.0425655 a0        0.0225 Å
 total power (kW/mol):        -1.1697099 (step) -238.1542 (real)
------------------------------------------------------------------------

 ANCopt (total)                0 d,  0 h,  0 min,  0.025 sec
 optimizer setup                ...        0 min,  0.000 sec (  0.289%)
 model hessian                  ...        0 min,  0.002 sec (  7.998%)
 ANC generation                 ...        0 min,  0.000 sec (  1.120%)
 coordinate transformation      ...        0 min,  0.000 sec (  0.082%)
 single point calculation       ...        0 min,  0.021 sec ( 85.828%)
 optimization log               ...        0 min,  0.000 sec (  1.173%)
 hessian update                 ...        0 min,  0.000 sec (  0.106%)
 rational function              ...        0 min,  0.001 sec (  2.718%)

================
 final structure:
================
18
 xtb: 6.5.0 (746241f)
C           -1.23680519098682       -1.39100786905630       -0.00479189873520
C           -0.00278158735244       -0.71527942735255       -0.00416267520183
C            1.23066291410658       -1.39206168265271       -0.00384774005828
C            2.43962649872596       -0.69017540947939       -0.00320336733154
C            2.44021446790027        0.68690138858014       -0.00286810721623
C            1.23185054803159        1.38981904898110       -0.00318288422702
C           -0.00217139331261        0.71409095262519       -0.00383533245773
C           -1.23561737079532        1.39087372008997       -0.00418464856009
C           -2.44458310796611        0.68898658024930       -0.00481148670239
C           -2.44517152292590       -0.68808942047462       -0.00510628294290
H           -1.24366008988377       -2.47669077768292       -0.00503796301394
H            1.23658918286616       -2.47774978961735       -0.00410769696238
H            3.37825039283039       -1.23912453967804       -0.00297062633979
H            3.37930926276961        1.23504401025748       -0.00236572806975
H            1.23870515936181        2.47550232771825       -0.00292093712883
H           -1.24154692862118        2.47656144262095       -0.00394936043972
H           -3.38320722119611        1.23793432700273       -0.00506458302286
H           -3.38426401355212       -1.23623488213122       -0.00558868158951
 
 Bond Distances (Angstroems)
 ---------------------------
C1-C2=1.4069         C1-C10=1.3979        C1-H11=1.0857        C2-C1=1.4069         C2-C3=1.4069         C2-C7=1.4294         
C3-C2=1.4069         C3-C4=1.3979         C3-H12=1.0857        C4-C3=1.3979         C4-C5=1.3771         C4-H13=1.0874        
C5-C4=1.3771         C5-C6=1.3979         C5-H14=1.0874        C6-C5=1.3979         C6-C7=1.4069         C6-H15=1.0857        
C7-C2=1.4294         C7-C6=1.4069         C7-C8=1.4069         C8-C7=1.4069         C8-C9=1.3979         C8-H16=1.0857        
C9-C8=1.3979         C9-C10=1.3771        C9-H17=1.0874        C10-C1=1.3979        C10-C9=1.3771        C10-H18=1.0874       
H11-C1=1.0857        H12-C3=1.0857        H13-C4=1.0874        H14-C5=1.0874        H15-C6=1.0857        H16-C8=1.0857        
H17-C9=1.0874        H18-C10=1.0874       
 C  H  Rav=1.0865 sigma=0.0008  Rmin=1.0857  Rmax=1.0874     8
 C  C  Rav=1.4003 sigma=0.0139  Rmin=1.3771  Rmax=1.4294    11
 
 selected bond angles (degree)
 --------------------
C10-C1-C2=121.11               H11-C1-C2=119.07               H11-C1-C10=119.83              C3-C2-C1=122.54                
C7-C2-C1=118.73                C7-C2-C3=118.73                C4-C3-C2=121.11                H12-C3-C2=119.07               
H12-C3-C4=119.83               C5-C4-C3=120.16                H13-C4-C3=119.54               H13-C4-C5=120.30               
C6-C5-C4=120.16                H14-C5-C4=120.30               H14-C5-C6=119.54               C7-C6-C5=121.11                
H15-C6-C5=119.83               H15-C6-C7=119.07               C6-C7-C2=118.73                C8-C7-C2=118.73                
C8-C7-C6=122.54                C9-C8-C7=121.11                H16-C8-C7=119.07               H16-C8-C9=119.83               
C10-C9-C8=120.16               H17-C9-C8=119.54               H17-C9-C10=120.30              C9-C10-C1=120.16               
H18-C10-C1=119.54              H18-C10-C9=120.30              
 
 selected dihedral angles (degree)
 ---------------------------------
C3-C2-C1-C10=180.00           C3-C2-C1-H11=  0.00           C7-C2-C1-C10=  0.00           C7-C2-C1-H11=180.00           
C4-C3-C2-C1=180.00            C4-C3-C2-C7=  0.00            H12-C3-C2-C1=  0.00           H12-C3-C2-C7=180.00           
C5-C4-C3-C2=  0.00            C5-C4-C3-H12=180.00           H13-C4-C3-C2=180.00           H13-C4-C3-H12=  0.00          
C6-C5-C4-C3=  0.00            C6-C5-C4-H13=180.00           H14-C5-C4-C3=180.00           H14-C5-C4-H13=  0.00          
C7-C6-C5-C4=  0.00            C7-C6-C5-H14=180.00           H15-C6-C5-C4=180.00           H15-C6-C5-H14=  0.00          
C6-C7-C2-C1=180.00            C6-C7-C2-C3=  0.00            C8-C7-C2-C1=  0.00            C8-C7-C2-C3=180.00            
C2-C7-C6-C5=  0.00            C2-C7-C6-H15=180.00           C8-C7-C6-C5=180.00            C8-C7-C6-H15=  0.00           
C9-C8-C7-C2=  0.00            C9-C8-C7-C6=180.00            H16-C8-C7-C2=180.00           H16-C8-C7-C6=  0.00           
C10-C9-C8-C7=  0.00           C10-C9-C8-H16=180.00          H17-C9-C8-C7=180.00           H17-C9-C8-H16=  0.00          
C9-C10-C1-C2=  0.00           C9-C10-C1-H11=180.00          H18-C10-C1-C2=180.00          H18-C10-C1-H11=  0.00         
C1-C10-C9-C8=  0.00           C1-C10-C9-H17=180.00          H18-C10-C9-C8=180.00          H18-C10-C9-H17=  0.00         
           -------------------------------------------------
          |                Final Singlepoint                |
           -------------------------------------------------

          ...................................................
          :                      SETUP                      :
          :.................................................:
          :  # basis functions                  48          :
          :  # atomic orbitals                  48          :
          :  # shells                           28          :
          :  # electrons                        49          :
          :  max. iterations                   250          :
          :  Hamiltonian                  GFN2-xTB          :
          :  restarted?                      false          :
          :  GBSA solvation                  false          :
          :  PC potential                    false          :
          :  electronic temp.          300.0000000     K    :
          :  accuracy                    1.0000000          :
          :  -> integral cutoff          0.2500000E+02      :
          :  -> integral neglect         0.1000000E-07      :
          :  -> SCF convergence          0.1000000E-05 Eh   :
          :  -> wf. convergence          0.1000000E-03 e    :
          :  Broyden damping             0.4000000          :
          ...................................................

 iter      E             dE          RMSdq      gap      omega  full diag
   1    -26.1230817 -0.261231E+02  0.414E-05    0.99       0.0  T
   2    -26.1230817 -0.218492E-11  0.248E-05    0.99     951.3  T
   3    -26.1230817 -0.292744E-11  0.184E-05    0.99    1284.0  T

   *** convergence criteria satisfied after 3 iterations ***

         #    Occupation            Energy/Eh            Energy/eV
      -------------------------------------------------------------
         1        2.0000           -0.4483993             -12.2016
       ...           ...                  ...                  ...
        19        2.0000           -0.2565623              -6.9814
        20        2.0000           -0.2285760              -6.2199
        21        2.0000           -0.2279548              -6.2030
        22        2.0000           -0.2238778              -6.0920
        23        2.0000           -0.2092105              -5.6929
        24        2.0000           -0.1747616              -4.7555
        25        1.0000           -0.0693965              -1.8884 (HOMO)
        26                         -0.0331691              -0.9026 (LUMO)
        27                          0.0061973               0.1686
        28                          0.0450036               1.2246
        29                          0.1362191               3.7067
        30                          0.2835684               7.7163
       ...                                ...                  ...
        48                          0.8869382              24.1348
      -------------------------------------------------------------
                  HL-Gap            0.0362275 Eh            0.9858 eV
             Fermi-level           -0.0866809 Eh           -2.3587 eV

 SCC (total)                   0 d,  0 h,  0 min,  0.004 sec
 SCC setup                      ...        0 min,  0.000 sec (  1.718%)
 Dispersion                     ...        0 min,  0.000 sec (  1.295%)
 classical contributions        ...        0 min,  0.000 sec (  0.201%)
 integral evaluation            ...        0 min,  0.000 sec ( 11.458%)
 iterations                     ...        0 min,  0.002 sec ( 59.605%)
 molecular gradient             ...        0 min,  0.001 sec ( 23.708%)
 printout                       ...        0 min,  0.000 sec (  1.631%)

         :::::::::::::::::::::::::::::::::::::::::::::::::::::
         ::                     SUMMARY                     ::
         :::::::::::::::::::::::::::::::::::::::::::::::::::::
         :: total energy             -25.638035481112 Eh    ::
         :: gradient norm              0.000784022342 Eh/a0 ::
         :: HOMO-LUMO gap              0.985799899967 eV    ::
         ::.................................................::
         :: SCC energy               -26.123081684460 Eh    ::
         :: -> isotropic ES            0.095227023367 Eh    ::
         :: -> anisotropic ES          0.023917994762 Eh    ::
         :: -> anisotropic XC          0.013366938460 Eh    ::
         :: -> dispersion             -0.018590520940 Eh    ::
         :: repulsion energy           0.485010365121 Eh    ::
         :: add. restraining           0.000000000000 Eh    ::
         :: total charge              -1.000000000000 e     ::
         :::::::::::::::::::::::::::::::::::::::::::::::::::::

           -------------------------------------------------
          |                Property Printout                |
           -------------------------------------------------

    * Orbital Energies and Occupations

         #    Occupation            Energy/Eh            Energy/eV
      -------------------------------------------------------------
         1        2.0000           -0.4483993             -12.2016
       ...           ...                  ...                  ...
        13        2.0000           -0.2976693              -8.1000
        14        2.0000           -0.2911295              -7.9220
        15        2.0000           -0.2851728              -7.7599
        16        2.0000           -0.2788951              -7.5891
        17        2.0000           -0.2783305              -7.5738
        18        2.0000           -0.2594960              -7.0612
        19        2.0000           -0.2565623              -6.9814
        20        2.0000           -0.2285760              -6.2199
        21        2.0000           -0.2279548              -6.2030
        22        2.0000           -0.2238778              -6.0920
        23        2.0000           -0.2092105              -5.6929
        24        2.0000           -0.1747616              -4.7555
        25        1.0000           -0.0693965              -1.8884 (HOMO)
        26                         -0.0331691              -0.9026 (LUMO)
        27                          0.0061973               0.1686
        28                          0.0450036               1.2246
        29                          0.1362191               3.7067
        30                          0.2835684               7.7163
        31                          0.2840975               7.7307
        32                          0.3027146               8.2373
        33                          0.3085029               8.3948
        34                          0.3390635               9.2264
        35                          0.3508674               9.5476
        36                          0.3566842               9.7059
       ...                                ...                  ...
        48                          0.8869382              24.1348
      -------------------------------------------------------------
                  HL-Gap            0.0362275 Eh            0.9858 eV
             Fermi-level           -0.0866809 Eh           -2.3587 eV

     #   Z          covCN         q      C6AA      α(0)
     1   6 C        2.917    -0.093    30.332     9.031
     2   6 C        2.977    -0.004    28.123     8.699
     3   6 C        2.917    -0.093    30.332     9.031
     4   6 C        2.910    -0.063    29.575     8.918
     5   6 C        2.910    -0.063    29.575     8.918
     6   6 C        2.917    -0.093    30.332     9.031
     7   6 C        2.977    -0.004    28.123     8.699
     8   6 C        2.917    -0.093    30.332     9.031
     9   6 C        2.910    -0.063    29.575     8.918
    10   6 C        2.910    -0.063    29.575     8.918
    11   1 H        0.925    -0.044     3.951     3.108
    12   1 H        0.925    -0.044     3.951     3.108
    13   1 H        0.925    -0.048     4.033     3.141
    14   1 H        0.925    -0.048     4.033     3.141
    15   1 H        0.925    -0.044     3.951     3.108
    16   1 H        0.925    -0.044     3.951     3.108
    17   1 H        0.925    -0.048     4.033     3.141
    18   1 H        0.925    -0.048     4.033     3.141

 Mol. C6AA /au·bohr⁶  :       4950.062891
 Mol. C8AA /au·bohr⁸  :     121111.370011
 Mol. α(0) /au        :        114.188544


Wiberg/Mayer (AO) data.
largest (>0.10) Wiberg bond orders for each atom

 ---------------------------------------------------------------------------
     #   Z sym  total        # sym  WBO       # sym  WBO       # sym  WBO
 ---------------------------------------------------------------------------
     1   6 C    3.775 --    10 C    1.361     2 C    1.301    11 H    0.970
     2   6 C    3.989 --     3 C    1.301     1 C    1.301     7 C    1.220
     3   6 C    3.776 --     4 C    1.361     2 C    1.301    12 H    0.970
     4   6 C    3.917 --     5 C    1.456     3 C    1.361    13 H    0.970
     5   6 C    3.917 --     4 C    1.456     6 C    1.361    14 H    0.970
     6   6 C    3.776 --     5 C    1.361     7 C    1.301    15 H    0.970
     7   6 C    3.989 --     6 C    1.301     8 C    1.301     2 C    1.220
     8   6 C    3.775 --     9 C    1.361     7 C    1.301    16 H    0.970
     9   6 C    3.917 --    10 C    1.456     8 C    1.361    17 H    0.970
    10   6 C    3.917 --     9 C    1.456     1 C    1.361    18 H    0.970
    11   1 H    0.998 --     1 C    0.970
    12   1 H    0.998 --     3 C    0.970
    13   1 H    0.997 --     4 C    0.970
    14   1 H    0.997 --     5 C    0.970
    15   1 H    0.998 --     6 C    0.970
    16   1 H    0.998 --     8 C    0.970
    17   1 H    0.997 --     9 C    0.970
    18   1 H    0.997 --    10 C    0.970
 ---------------------------------------------------------------------------

Topologies differ in total number of bonds
Writing topology from bond orders to xtbtopo.mol

MOs/occ written to file <molden.input>


molecular dipole:
                 x           y           z       tot (Debye)
 q only:        0.005       0.001       0.008
   full:        0.005       0.001       0.008       0.023
molecular quadrupole (traceless):
                xx          xy          yy          xz          yz          zz
 q only:      -12.201       0.005       0.163      -0.010      -0.003      12.038
  q+dip:       -8.400       0.005       3.536      -0.005      -0.000       4.863
   full:       -9.910       0.005       1.966      -0.007      -0.001       7.944

           -------------------------------------------------
          |                Geometry Summary                 |
           -------------------------------------------------

      molecular mass/u    :      128.1708850
   center of mass at/Å    :       -0.0024776      -0.0005942      -0.0039995
  moments of inertia/u·Å² :        0.1588952E+03   0.4120128E+03   0.5709079E+03
rotational constants/cm⁻¹ :        0.1060928E+00   0.4091531E-01   0.2952776E-01

 * 19 selected distances

     #   Z          #   Z                                           value/Å
     1   6 C        2   6 C                                       1.4069200
     2   6 C        3   6 C                                       1.4069186
     3   6 C        4   6 C                                       1.3979407
     4   6 C        5   6 C                                       1.3770771
     5   6 C        6   6 C                                       1.3979403
     2   6 C        7   6 C                                       1.4293707 (max)
     6   6 C        7   6 C                                       1.4069184
     7   6 C        8   6 C                                       1.4069202
     8   6 C        9   6 C                                       1.3979429
     1   6 C       10   6 C                                       1.3979428
     9   6 C       10   6 C                                       1.3770763
     1   6 C       11   1 H                                       1.0857047
     3   6 C       12   1 H                                       1.0857044
     4   6 C       13   1 H                                       1.0873639
     5   6 C       14   1 H                                       1.0873637
     6   6 C       15   1 H                                       1.0857050
     8   6 C       16   1 H                                       1.0857040 (min)
     9   6 C       17   1 H                                       1.0873634
    10   6 C       18   1 H                                       1.0873631

 * 2 distinct bonds (by element types)

   Z      Z             #   av. dist./Å        max./Å        min./Å
   1 H    6 C           8     1.0865340     1.0873639     1.0857040
   6 C    6 C          11     1.4002698     1.4293707     1.3770763


optimized geometry written to: xtbopt.xyz


           -------------------------------------------------
          | TOTAL ENERGY              -25.638035481112 Eh   |
          | GRADIENT NORM               0.000784022342 Eh/α |
          | HOMO-LUMO GAP               0.985799899967 eV   |
           -------------------------------------------------

------------------------------------------------------------------------
 * finished run on 2022/07/20 at 14:34:19.723     
------------------------------------------------------------------------
 total:
 * wall-time:     0 d,  0 h,  0 min,  0.075 sec
 *  cpu-time:     0 d,  0 h,  0 min,  1.105 sec
 * ratio c/w:    14.637 speedup
 SCF:
 * wall-time:     0 d,  0 h,  0 min,  0.008 sec
 *  cpu-time:     0 d,  0 h,  0 min,  0.131 sec
 * ratio c/w:    15.551 speedup
 ANC optimizer:
 * wall-time:     0 d,  0 h,  0 min,  0.029 sec
 *  cpu-time:     0 d,  0 h,  0 min,  0.453 sec
 * ratio c/w:    15.783 speedup

