18
 energy: -25.635807887707 gnorm: 0.044848020157 xtb: 6.5.0 (746241f)
C           -1.21410000000000       -1.39550000000000       -0.00440000000000
C           -0.00280000000000       -0.70150000000000       -0.00380000000000
C            1.20790000000000       -1.39650000000000       -0.00380000000000
C            2.41420000000000       -0.69840000000000       -0.00350000000000
C            2.41480000000000        0.69510000000000       -0.00290000000000
C            1.20910000000000        1.39430000000000       -0.00280000000000
C           -0.00220000000000        0.70030000000000       -0.00350000000000
C           -1.21290000000000        1.39530000000000       -0.00410000000000
C           -2.41910000000000        0.69720000000000       -0.00510000000000
C           -2.41970000000000       -0.69630000000000       -0.00510000000000
H           -1.22400000000000       -2.48300000000000       -0.00450000000000
H            1.21690000000000       -2.48400000000000       -0.00420000000000
H            3.35590000000000       -1.24180000000000       -0.00370000000000
H            3.35690000000000        1.23780000000000       -0.00260000000000
H            1.21900000000000        2.48180000000000       -0.00240000000000
H           -1.22180000000000        2.48280000000000       -0.00400000000000
H           -3.36080000000000        1.24060000000000       -0.00580000000000
H           -3.36190000000000       -1.23890000000000       -0.00580000000000
18
 energy: -25.637833115411 gnorm: 0.016007770621 xtb: 6.5.0 (746241f)
C           -1.23194689854009       -1.39280564779914       -0.00444912123435
C           -0.00278680005916       -0.70910661845837       -0.00388400529119
C            1.22577927765076       -1.39383920606213       -0.00390939021041
C            2.43406874122691       -0.69258004109104       -0.00343121593127
C            2.43466030638340        0.68928771355167       -0.00285962218608
C            1.22697254960912        1.39160272094621       -0.00288868164084
C           -0.00218110812674        0.70790937385494       -0.00359472981573
C           -1.23075321537634        1.39265057306505       -0.00415032444278
C           -2.43900831590755        0.69139356311743       -0.00504910350504
C           -2.43959704186494       -0.69048794692037       -0.00505587880518
H           -1.24148192042230       -2.47839656891868       -0.00456590030792
H            1.23441422854173       -2.47943876494046       -0.00424789965485
H            3.37618621217952       -1.23454079154005       -0.00352568104572
H            3.37720649029906        1.23050267418715       -0.00246543165941
H            1.23652006607669        2.47719243353507       -0.00248435826469
H           -1.23932208636875        2.47825116719751       -0.00403690020854
H           -3.38113484389489        1.23334406056504       -0.00568478198999
H           -3.38219564140641       -1.23163869428983       -0.00571697380602
18
 energy: -25.638018155128 gnorm: 0.004712866311 xtb: 6.5.0 (746241f)
C           -1.23713794797795       -1.39173314875991       -0.00463179448518
C           -0.00278020555097       -0.71338449921929       -0.00408580153439
C            1.23098771927922       -1.39278188910949       -0.00387272052219
C            2.43937273721498       -0.69041727992768       -0.00331723754449
C            2.43996057447669        0.68713571651181       -0.00286476400885
C            1.23217683281920        1.39053576814962       -0.00302856055578
C           -0.00217186223785        0.71219152226708       -0.00375632625963
C           -1.23594788120837        1.39159643845832       -0.00418287484644
C           -2.44432791068318        0.68923221237363       -0.00492960148770
C           -2.44491408011802       -0.68832972975582       -0.00511325787543
H           -1.24501114300448       -2.47696017565795       -0.00471883385990
H            1.23794872457532       -2.47801779436483       -0.00417636282082
H            3.38013263942808       -1.23519548511556       -0.00328068116638
H            3.38117379685880        1.23113063665216       -0.00238461295330
H            1.24005960046248        2.47576293292785       -0.00264888621269
H           -1.24287934192483        2.47683210529231       -0.00399517801587
H           -3.38509598802901        1.23399689428252       -0.00538092755528
H           -3.38614626438011       -1.23229422500476       -0.00563157829567
18
 energy: -25.638032772706 gnorm: 0.001850683693 xtb: 6.5.0 (746241f)
C           -1.23731617134193       -1.39142974438990       -0.00470288601645
C           -0.00278256260208       -0.71460327069716       -0.00412317046547
C            1.23116961481600       -1.39248362195122       -0.00386534088620
C            2.43972495100113       -0.69020192068811       -0.00327211185433
C            2.44031249925410        0.68692476795121       -0.00286704870487
C            1.23235759606745        1.39023838682893       -0.00309952023971
C           -0.00217334861249        0.71341265806487       -0.00379543102819
C           -1.23612745883010        1.39129580351232       -0.00419266713491
C           -2.44467987247845        0.68901518517981       -0.00487716163179
C           -2.44526682254398       -0.68811531718528       -0.00510528224661
H           -1.24443312932118       -2.47683565220642       -0.00486721018314
H            1.23736736250718       -2.47789601415269       -0.00414721786385
H            3.37945790332073       -1.23709978579939       -0.00313007032229
H            3.38050880189348        1.23302531968635       -0.00236959343853
H            1.23948079287926        2.47564423287936       -0.00276956565210
H           -1.24231200450121        2.47670817601194       -0.00397760436685
H           -3.38441797052797        1.23590424598946       -0.00523050763077
H           -3.38547018097994       -1.23420344903407       -0.00560761033396
18
 energy: -25.638035481073 gnorm: 0.000784333971 xtb: 6.5.0 (746241f)
C           -1.23680519098682       -1.39100786905630       -0.00479189873520
C           -0.00278158735244       -0.71527942735255       -0.00416267520183
C            1.23066291410658       -1.39206168265271       -0.00384774005828
C            2.43962649872596       -0.69017540947939       -0.00320336733154
C            2.44021446790027        0.68690138858014       -0.00286810721623
C            1.23185054803159        1.38981904898110       -0.00318288422702
C           -0.00217139331261        0.71409095262519       -0.00383533245773
C           -1.23561737079532        1.39087372008997       -0.00418464856009
C           -2.44458310796611        0.68898658024930       -0.00481148670239
C           -2.44517152292590       -0.68808942047462       -0.00510628294290
H           -1.24366008988377       -2.47669077768292       -0.00503796301394
H            1.23658918286616       -2.47774978961735       -0.00410769696238
H            3.37825039283039       -1.23912453967804       -0.00297062633979
H            3.37930926276961        1.23504401025748       -0.00236572806975
H            1.23870515936181        2.47550232771825       -0.00292093712883
H           -1.24154692862118        2.47656144262095       -0.00394936043972
H           -3.38320722119611        1.23793432700273       -0.00506458302286
H           -3.38426401355212       -1.23623488213122       -0.00558868158951
