      -----------------------------------------------------------      
     |                   =====================                   |     
     |                           x T B                           |     
     |                   =====================                   |     
     |                         S. Grimme                         |     
     |          Mulliken Center for Theoretical Chemistry        |     
     |                    University of Bonn                     |     
      -----------------------------------------------------------      

   * xtb version 6.2.2 (655bc02) compiled by 'ehlert@majestix' on 2019-12-09

   This program is distributed in the hope that it will be useful,
   but WITHOUT ANY WARRANTY; without even the implied warranty of
   MERCHANTABILITY or FITNESS FOR A PARTICULAR PURPOSE.
   
   FOR NON-COMMERCIAL, ACADEMIA USE ONLY.
   
   Cite this work as:
   * S. Grimme, C. Bannwarth, P. Shushkov, J. Chem. Theory Comput., 2017,
     13, 1989-2009. DOI: 10.1021/acs.jctc.7b00118
   * C. Bannwarth, S. Ehlert and S. Grimme., J. Chem. Theory Comput., 2019,
     15, 1652-1671. DOI: 10.1021/acs.jctc.8b01176
   * P. Pracht, E. Caldeweyher, S. Ehlert, S. Grimme, ChemRxiv, 2019, preprint.
     DOI: 10.26434/chemrxiv.8326202.v1
   
   for DFT-D4:
   * E. Caldeweyher, C. Bannwarth and S. Grimme, J. Chem. Phys., 2017,
     147, 034112. DOI: 10.1063/1.4993215
   * E. Caldeweyher, S. Ehlert, A. Hansen, H. Neugebauer, S. Spicher,
     C. Bannwarth and S. Grimme, J. Chem. Phys., 2019, 150, 154122.
     DOI: 10.1063/1.5090222
   
   for sTDA-xTB:
   * S. Grimme and C. Bannwarth, J. Chem. Phys., 2016, 145, 054103.
     DOI: 10.1063/1.4959605
   
   in the mass-spec context:
   * V. Asgeirsson, C. Bauer and S. Grimme, Chem. Sci., 2017, 8, 4879.
     DOI: 10.1039/c7sc00601b
   
   for metadynamics refer to:
   * S. Grimme, J. Chem. Theory Comput., 2019, 155, 2847-2862
     DOI: 10.1021/acs.jctc.9b00143
   
   with help from (in alphabetical order)
   C. Bannwarth, F. Bohle, G. Brandenburg, E. Caldeweyher, M. Checinski,
   S. Dohm, S. Ehlert, S. Ehrlich, F. März, H. Neugebauer, J. Pisarek,
   P. Pracht, P. Shushkov, and S. Spicher.
   
 * started run on 2022/07/13 at 14:43:18.231     

           -------------------------------------------------
          |                Calculation Setup                |
           -------------------------------------------------

          program call               : xtb -c 1 -u 1 input.xyz --opt normal
          coordinate file            : input.xyz
          omp threads                :                     8
          number of atoms            :                    12
          number of electrons        :                    29
          charge                     :                     1
          spin                       :                   0.5
          first test random number   :      0.21181764221028


########################################################################
# WARNING! Please study the warnings concerning your input carefully
#  - XTBHOME is not set, using HOME instead
#  - XTBPATH is not set, using XTBHOME instead
########################################################################

           ------------------------------------------------- 
          |                 G F N 2 - x T B                 |
          | Geometry, Frequencies, Noncovalent interactions |
          |            JCTC 2019 parametrisation            |
           ------------------------------------------------- 
             k(s)              :                1.8500
             k(p)              :                2.2300
             k(d)              :                2.2300
             k(f)              :                2.0000
             kEN (H0ij)        :               -2.0000
             D4 a1             :                0.5200
             D4 a2             :                5.0000
             D4 s6             :                1.0000
             D4 s8             :                2.7000
             D4 s9             :                5.0000
             alphaj            :                2.0000

  Z AO/shell   Hii/eV     exponent
  1     Wed Apr 25 08:07:45 CEST 2018   EN: 2.200 GM2: 0.406  GM3: 0.0800  RAES: 1.40
     1s    -10.707211    1.230000
  6     Wed Apr 25 08:07:45 CEST 2018   EN: 2.550 GM2: 0.538  GM3: 0.1500  RAES: 3.00
     2s    -13.970922    2.096432
     2p    -10.063292    1.800000

           ------------------------------------------------- 
          |        Self-Consistent Charge Iterations        |
           ------------------------------------------------- 

          ...................................................
          :                      SETUP                      :
          :.................................................:
          :  # basis functions                  30          :
          :  # atomic orbitals                  30          :
          :  # shells                           18          :
          :  # electrons                        29          :
          :  max. iterations                   250          :
          :  Hamiltonian                  GFN2-xTB          :
          :  restarted?                      false          :
          :  GBSA solvation                  false          :
          :  PC potential                    false          :
          :  electronic temp.          300.0000000     K    :
          :  accuracy                    1.0000000          :
          :  -> integral cutoff          0.2500000E+02      :
          :  -> integral neglect         0.1000000E-07      :
          :  -> SCF convergence          0.1000000E-05 Eh   :
          :  -> wf. convergence          0.1000000E-03 e    :
          :  Broyden damping             0.4000000          :
          ...................................................

 iter      E             dE          RMSdq      gap      omega  full diag
   1    -15.6441415 -0.156441E+02  0.642E+00    4.90       0.0  T
   2    -15.6556561 -0.115146E-01  0.390E+00    4.90       1.0  T
   3    -15.6499398  0.571633E-02  0.129E+00    4.86       1.0  T
   4    -15.6557919 -0.585213E-02  0.895E-01    4.89       1.0  T
   5    -15.6564772 -0.685281E-03  0.150E-01    4.89       1.0  T
   6    -15.6563237  0.153511E-03  0.189E-01    4.88       1.0  T
   7    -15.6565201 -0.196457E-03  0.257E-02    4.89       1.1  T
   8    -15.6565220 -0.185241E-05  0.767E-03    4.89       3.8  T
   9    -15.6565222 -0.184579E-06  0.556E-03    4.89       5.2  T
  10    -15.6565222 -0.635386E-07  0.311E-04    4.89      92.8  T
  11    -15.6565222 -0.529477E-09  0.356E-05    4.89     810.5  T

   *** convergence criteria satisfied after 11 iterations ***

         #    Occupation            Energy/Eh            Energy/eV
      -------------------------------------------------------------
         1        2.0000           -0.8824607             -24.0130
       ...           ...                  ...                  ...
         9        2.0000           -0.7084523             -19.2780
        10        2.0000           -0.6990889             -19.0232
        11        2.0000           -0.6990886             -19.0232
        12        1.9184           -0.6429979             -17.4969
        13        1.9183           -0.6429970             -17.4968
        14        1.5816           -0.6410108             -17.4428
        15        1.5816           -0.6410107             -17.4428 (HOMO)
        16                         -0.4612132             -12.5503 (LUMO)
        17                         -0.4612123             -12.5502
        18                         -0.3325080              -9.0480
        19                         -0.0942415              -2.5644
        20                         -0.0895212              -2.4360
       ...                                ...                  ...
        30                          0.4127161              11.2306
      -------------------------------------------------------------
                  HL-Gap            0.1797974 Eh            4.8925 eV
             Fermi-level           -0.5959049 Eh          -16.2154 eV

 SCC (total)                   0 d,  0 h,  0 min,  0.005 sec
 SCC setup                      ...        0 min,  0.000 sec (  1.675%)
 Dispersion                     ...        0 min,  0.000 sec (  1.342%)
 integral evaluation            ...        0 min,  0.000 sec (  8.937%)
 zeroth order Hamiltonian       ...        0 min,  0.000 sec (  0.662%)
 iterations                     ...        0 min,  0.003 sec ( 46.808%)
 molecular gradient             ...        0 min,  0.001 sec ( 14.712%)
 printout                       ...        0 min,  0.001 sec ( 25.307%)

         :::::::::::::::::::::::::::::::::::::::::::::::::::::
         ::                     SUMMARY                     ::
         :::::::::::::::::::::::::::::::::::::::::::::::::::::
         :: total energy             -15.358041008518 Eh    ::
         :: gradient norm              0.015880812621 Eh/a0 ::
         :: HOMO-LUMO gap              4.892537086999 eV    ::
         ::.................................................::
         :: SCC energy               -15.656522233929 Eh    ::
         :: -> isotropic ES            0.100640549740 Eh    ::
         :: -> anisotropic ES         -0.021164392774 Eh    ::
         :: -> anisotropic XC          0.017418212172 Eh    ::
         :: -> dispersion             -0.006753261090 Eh    ::
         :: repulsion energy           0.298474196495 Eh    ::
         :: add. restraining           0.000000000000 Eh    ::
         :::::::::::::::::::::::::::::::::::::::::::::::::::::

      ----------------------------------------------------------- 
     |                   =====================                   |
     |                        A N C O P T                        |
     |                   =====================                   |
     |               Approximate Normal Coordinate               |
     |                Rational Function Optimizer                |
      ----------------------------------------------------------- 

          ...................................................
          :                      SETUP                      :
          :.................................................:
          :   optimization level            normal          :
          :   max. optcycles                   200          :
          :   ANC micro-cycles                  20          :
          :   degrees of freedom                30          :
          :.................................................:
          :   RF solver                   davidson          :
          :   write xtbopt.log                true          :
          :   linear?                        false          :
          :   energy convergence         0.5000000E-05 Eh   :
          :   grad. convergence          0.1000000E-02 Eh/α :
          :   maximium RF displ.         1.0000000          :
          :   Hlow (freq-cutoff)         0.1000000E-01      :
          :   Hmax (freq-cutoff)         5.0000000          :
          :   S6 in model hess.         20.0000000          :
          ...................................................

generating ANC from model Hessian ...
Using Lindh-Hessian (1995)
 Shifting diagonal of input Hessian by   0.000000000000000E+000
 Lowest  eigenvalues of input Hessian
   -0.000000   -0.000000    0.000000    0.000000    0.000000    0.000000
    0.013826    0.013860    0.022878    0.024320    0.063060    0.063361
    0.091594    0.091649    0.095680    0.095740    0.096517    0.120223
 Highest eigenvalues
    1.329222    1.540518    1.540552    1.837948    1.942221    1.942387
 

........................................................................
.............................. CYCLE    1 ..............................
........................................................................
   1    -15.6565222 -0.156565E+02  0.215E-05    4.89       0.0  T
   2    -15.6565222  0.450999E-10  0.769E-05    4.89     375.3  T
   3    -15.6565222 -0.452154E-10  0.171E-05    4.89    1683.3  T
     SCC iter.                  ...        0 min,  0.001 sec
     gradient                   ...        0 min,  0.001 sec
 * total energy  :   -15.3580410 Eh     change       -0.7976944E-09 Eh
   gradient norm :     0.0158807 Eh/α   predicted     0.0000000E+00 (-100.00%)
   displ. norm   :     0.0130160 α      lambda       -0.2012063E-03
   maximum displ.:     0.0125130 α      in ANC's #24, #16, #4, ...

........................................................................
.............................. CYCLE    2 ..............................
........................................................................
   1    -15.6558362 -0.156558E+02  0.112E-01    4.86       0.0  T
   2    -15.6558476 -0.114088E-04  0.236E-02    4.86       1.2  T
   3    -15.6558487 -0.108103E-05  0.286E-02    4.86       1.0  T
   4    -15.6558465  0.217521E-05  0.188E-02    4.86       1.5  T
   5    -15.6558493 -0.276940E-05  0.110E-03    4.86      26.3  T
   6    -15.6558493 -0.267187E-09  0.843E-04    4.86      34.3  T
     SCC iter.                  ...        0 min,  0.001 sec
     gradient                   ...        0 min,  0.001 sec
 * total energy  :   -15.3581817 Eh     change       -0.1406930E-03 Eh
   gradient norm :     0.0062092 Eh/α   predicted    -0.1006195E-03 ( -28.48%)
   displ. norm   :     0.0098270 α      lambda       -0.5425374E-04
   maximum displ.:     0.0081833 α      in ANC's #24, #16, #4, ...

........................................................................
.............................. CYCLE    3 ..............................
........................................................................
   1    -15.6547936 -0.156548E+02  0.692E-02    4.84       0.0  T
   2    -15.6547979 -0.432035E-05  0.194E-02    4.84       1.5  T
   3    -15.6547976  0.300651E-06  0.174E-02    4.84       1.7  T
   4    -15.6547911  0.646623E-05  0.315E-02    4.84       1.0  T
   5    -15.6547982 -0.707176E-05  0.504E-04    4.84      57.3  T
   6    -15.6547982  0.274483E-10  0.256E-04    4.84     112.9  T
   7    -15.6547982  0.847427E-09  0.350E-04    4.84      82.4  T
     SCC iter.                  ...        0 min,  0.001 sec
     gradient                   ...        0 min,  0.001 sec
 * total energy  :   -15.3582082 Eh     change       -0.2647462E-04 Eh
   gradient norm :     0.0002992 Eh/α   predicted    -0.2712787E-04 (   2.47%)
   displ. norm   :     0.0015818 α      lambda       -0.1577718E-06
   maximum displ.:     0.0013098 α      in ANC's #4, #16, #24, ...

........................................................................
.............................. CYCLE    4 ..............................
........................................................................
   1    -15.6546565 -0.156547E+02  0.677E-03    4.84       0.0  T
   2    -15.6546565  0.271253E-07  0.418E-03    4.84       6.9  T
   3    -15.6546544  0.211670E-05  0.166E-02    4.84       1.7  T
   4    -15.6546565 -0.214876E-05  0.229E-04    4.84     126.3  T
   5    -15.6546565 -0.201684E-09  0.158E-04    4.84     183.2  T
   6    -15.6546565 -0.141204E-09  0.109E-04    4.84     264.2  T
     SCC iter.                  ...        0 min,  0.001 sec
     gradient                   ...        0 min,  0.001 sec
 * total energy  :   -15.3582084 Eh     change       -0.2600281E-06 Eh
   gradient norm :     0.0003269 Eh/α   predicted    -0.7856881E-07 ( -69.78%)
   displ. norm   :     0.0136583 α      lambda       -0.2241832E-05
   maximum displ.:     0.0135266 α      in ANC's #4, #17, #5, ...

   *** GEOMETRY OPTIMIZATION CONVERGED AFTER 4 ITERATIONS ***

------------------------------------------------------------------------
 total energy gain   :        -0.0001674 Eh       -0.1051 kcal/mol
 total RMSD          :         0.0065046 a0        0.0034 Å
 total power (kW/mol):        -0.1098958 (step)  -31.8882 (real)
------------------------------------------------------------------------

 ANCopt (total)                0 d,  0 h,  0 min,  0.014 sec
 optimizer setup                ...        0 min,  0.000 sec (  1.812%)
 model hessian                  ...        0 min,  0.001 sec ( 10.179%)
 ANC generation                 ...        0 min,  0.000 sec (  1.276%)
 coordinate transformation      ...        0 min,  0.000 sec (  0.169%)
 single point calculation       ...        0 min,  0.011 sec ( 78.379%)
 optimization log               ...        0 min,  0.001 sec (  5.141%)
 hessian update                 ...        0 min,  0.000 sec (  0.159%)
 rational function              ...        0 min,  0.000 sec (  1.621%)

================
 final structure:
================
$coord
   -1.42496961377395    2.23016402146251    0.03274615312023      C 
    1.21621996993395    2.36922231619658    0.06197277655514      C 
    2.65740011363036    0.15132966176166    0.06127728018996      C 
    1.45739711670929   -2.20561368689088    0.03054077621995      C 
   -1.18379230821479   -2.34467202907712    0.00131420756346      C 
   -2.62497254143970   -0.12677934110095    0.00200970094388      C 
   -2.53878570953436    3.94422915830193    0.03435883421487      H 
    2.14362543643814    4.19075280101554    0.08534676459695      H 
    4.69860631334436    0.25878897821459    0.08437528827303      H 
    2.57121421882178   -3.91967756815589    0.02892787406176      H 
   -2.11119803505702   -4.16620211436411   -0.02205979761070      H 
   -4.66617877711842   -0.23423805961617   -0.02108832587673      H 
$end
 
 Bond Distances (Angstroems)
 ---------------------------
C1-C2=1.3997         C1-C6=1.3997         C1-H7=1.0817         C2-C1=1.3997         C2-C3=1.3997         C2-H8=1.0817         
C3-C2=1.3997         C3-C4=1.3997         C3-H9=1.0817         C4-C3=1.3997         C4-C5=1.3997         C4-H10=1.0817        
C5-C4=1.3997         C5-C6=1.3997         C5-H11=1.0817        C6-C1=1.3997         C6-C5=1.3997         C6-H12=1.0817        
H7-C1=1.0817         H8-C2=1.0817         H9-C3=1.0817         H10-C4=1.0817        H11-C5=1.0817        H12-C6=1.0817        
 C  H  Rav=1.0817 sigma=0.0000  Rmin=1.0817  Rmax=1.0817     6
 C  C  Rav=1.3997 sigma=0.0000  Rmin=1.3997  Rmax=1.3997     6
 
 selected bond angles (degree)
 --------------------
C6-C1-C2=120.00                H7-C1-C2=120.00                H7-C1-C6=120.00                C3-C2-C1=120.00                
H8-C2-C1=120.00                H8-C2-C3=120.00                C4-C3-C2=120.00                H9-C3-C2=120.00                
H9-C3-C4=120.00                C5-C4-C3=120.00                H10-C4-C3=120.00               H10-C4-C5=120.00               
C6-C5-C4=120.00                H11-C5-C4=120.00               H11-C5-C6=120.00               C5-C6-C1=120.00                
H12-C6-C1=120.00               H12-C6-C5=120.00               
 
 selected dihedral angles (degree)
 ---------------------------------
C3-C2-C1-C6=  0.00            C3-C2-C1-H7=179.97            H8-C2-C1-C6=179.99            H8-C2-C1-H7=359.97            
C4-C3-C2-C1=  0.00            C4-C3-C2-H8=180.01            H9-C3-C2-C1=180.02            H9-C3-C2-H8=  0.00            
C5-C4-C3-C2=  0.00            C5-C4-C3-H9=179.98            H10-C4-C3-C2=179.97           H10-C4-C3-H9=359.97           
C6-C5-C4-C3=  0.00            C6-C5-C4-H10=180.03           H11-C5-C4-C3=180.01           H11-C5-C4-H10=  0.03          
C5-C6-C1-C2=  0.00            C5-C6-C1-H7=180.03            H12-C6-C1-C2=180.02           H12-C6-C1-H7=  0.03           
C1-C6-C5-C4=  0.00            C1-C6-C5-H11=179.99           H12-C6-C5-C4=179.98           H12-C6-C5-H11=  0.00          
           -------------------------------------------------
          |                Final Singlepoint                |
           -------------------------------------------------

          ...................................................
          :                      SETUP                      :
          :.................................................:
          :  # basis functions                  30          :
          :  # atomic orbitals                  30          :
          :  # shells                           18          :
          :  # electrons                        29          :
          :  max. iterations                   250          :
          :  Hamiltonian                  GFN2-xTB          :
          :  restarted?                      false          :
          :  GBSA solvation                  false          :
          :  PC potential                    false          :
          :  electronic temp.          300.0000000     K    :
          :  accuracy                    1.0000000          :
          :  -> integral cutoff          0.2500000E+02      :
          :  -> integral neglect         0.1000000E-07      :
          :  -> SCF convergence          0.1000000E-05 Eh   :
          :  -> wf. convergence          0.1000000E-03 e    :
          :  Broyden damping             0.4000000          :
          ...................................................

 iter      E             dE          RMSdq      gap      omega  full diag
   1    -15.6546565 -0.156547E+02  0.314E-04    4.84       0.0  T
   2    -15.6546565  0.158543E-07  0.147E-03    4.84      19.6  T
   3    -15.6546565 -0.161039E-07  0.224E-04    4.84     129.1  T
   4    -15.6546565 -0.182204E-09  0.141E-04    4.84     205.2  T

   *** convergence criteria satisfied after 4 iterations ***

         #    Occupation            Energy/Eh            Energy/eV
      -------------------------------------------------------------
         1        2.0000           -0.8824473             -24.0126
       ...           ...                  ...                  ...
         9        2.0000           -0.7099044             -19.3175
        10        2.0000           -0.6999323             -19.0461
        11        2.0000           -0.6999318             -19.0461
        12        1.9537           -0.6443901             -17.5347
        13        1.9537           -0.6443900             -17.5347
        14        1.5464           -0.6416935             -17.4614
        15        1.5462           -0.6416928             -17.4614 (HOMO)
        16                         -0.4637254             -12.6186 (LUMO)
        17                         -0.4637220             -12.6185
        18                         -0.3367580              -9.1637
        19                         -0.0896216              -2.4387
        20                         -0.0866907              -2.3590
       ...                                ...                  ...
        30                          0.4055322              11.0351
      -------------------------------------------------------------
                  HL-Gap            0.1779674 Eh            4.8427 eV
             Fermi-level           -0.5971128 Eh          -16.2483 eV

 SCC (total)                   0 d,  0 h,  0 min,  0.004 sec
 SCC setup                      ...        0 min,  0.000 sec (  1.952%)
 Dispersion                     ...        0 min,  0.000 sec (  1.313%)
 integral evaluation            ...        0 min,  0.001 sec ( 14.312%)
 zeroth order Hamiltonian       ...        0 min,  0.000 sec (  0.873%)
 iterations                     ...        0 min,  0.001 sec ( 29.398%)
 molecular gradient             ...        0 min,  0.001 sec ( 21.322%)
 printout                       ...        0 min,  0.001 sec ( 30.124%)

         :::::::::::::::::::::::::::::::::::::::::::::::::::::
         ::                     SUMMARY                     ::
         :::::::::::::::::::::::::::::::::::::::::::::::::::::
         :: total energy             -15.358208434260 Eh    ::
         :: gradient norm              0.000327175694 Eh/a0 ::
         :: HOMO-LUMO gap              4.842740511729 eV    ::
         ::.................................................::
         :: SCC energy               -15.654656514925 Eh    ::
         :: -> isotropic ES            0.100961561272 Eh    ::
         :: -> anisotropic ES         -0.021290878044 Eh    ::
         :: -> anisotropic XC          0.017746895758 Eh    ::
         :: -> dispersion             -0.006751867176 Eh    ::
         :: repulsion energy           0.296440983891 Eh    ::
         :: add. restraining           0.000000000000 Eh    ::
         :::::::::::::::::::::::::::::::::::::::::::::::::::::

           -------------------------------------------------
          |                Property Printout                |
           -------------------------------------------------

    * Orbital Energies and Occupations

         #    Occupation            Energy/Eh            Energy/eV
      -------------------------------------------------------------
         1        2.0000           -0.8824473             -24.0126
       ...           ...                  ...                  ...
         3        2.0000           -0.8467025             -23.0399
         4        2.0000           -0.8010646             -21.7981
         5        2.0000           -0.8010642             -21.7981
         6        2.0000           -0.7525414             -20.4777
         7        2.0000           -0.7312193             -19.8975
         8        2.0000           -0.7136922             -19.4206
         9        2.0000           -0.7099044             -19.3175
        10        2.0000           -0.6999323             -19.0461
        11        2.0000           -0.6999318             -19.0461
        12        1.9537           -0.6443901             -17.5347
        13        1.9537           -0.6443900             -17.5347
        14        1.5464           -0.6416935             -17.4614
        15        1.5462           -0.6416928             -17.4614 (HOMO)
        16                         -0.4637254             -12.6186 (LUMO)
        17                         -0.4637220             -12.6185
        18                         -0.3367580              -9.1637
        19                         -0.0896216              -2.4387
        20                         -0.0866907              -2.3590
        21                         -0.0396053              -1.0777
        22                         -0.0396045              -1.0777
        23                         -0.0381072              -1.0369
        24                         -0.0380978              -1.0367
        25                          0.1687678               4.5924
        26                          0.1687776               4.5927
       ...                                ...                  ...
        30                          0.4055322              11.0351
      -------------------------------------------------------------
                  HL-Gap            0.1779674 Eh            4.8427 eV
             Fermi-level           -0.5971128 Eh          -16.2483 eV

     #   Z        covCN         q      C6AA      α(0)
     1   6 C      2.910     0.033    27.271     8.563
     2   6 C      2.910     0.033    27.271     8.563
     3   6 C      2.910     0.033    27.271     8.563
     4   6 C      2.910     0.033    27.271     8.563
     5   6 C      2.910     0.033    27.271     8.563
     6   6 C      2.910     0.033    27.271     8.563
     7   1 H      0.925     0.134     1.504     1.918
     8   1 H      0.925     0.134     1.505     1.918
     9   1 H      0.925     0.134     1.504     1.918
    10   1 H      0.925     0.134     1.504     1.918
    11   1 H      0.925     0.134     1.505     1.918
    12   1 H      0.925     0.134     1.504     1.918

 Mol. C6AA /au·bohr⁶  :       1496.511246
 Mol. C8AA /au·bohr⁸  :      37661.135119
 Mol. α(0) /au        :         62.887341


Wiberg/Mayer (AO) data.
largest (>0.10) Wiberg bond orders for each atom
          total WBO             WBO to atom ...
     1  C   3.704        C    2 1.343    C    6 1.343    H    7 0.946
     2  C   3.704        C    1 1.343    C    3 1.343    H    8 0.946
     3  C   3.704        C    2 1.343    C    4 1.343    H    9 0.946
     4  C   3.704        C    5 1.343    C    3 1.343    H   10 0.946
     5  C   3.704        C    4 1.343    C    6 1.343    H   11 0.946
     6  C   3.704        C    5 1.343    C    1 1.343    H   12 0.946
     7  H   0.971        C    1 0.946
     8  H   0.971        C    2 0.946
     9  H   0.971        C    3 0.946
    10  H   0.971        C    4 0.946
    11  H   0.971        C    5 0.946
    12  H   0.971        C    6 0.946

molecular dipole:
                 x           y           z       tot (Debye)
 q only:        0.016       0.012       0.032
   full:        0.016       0.012       0.032       0.096
molecular quadrupole (traceless):
                xx          xy          yy          xz          yz          zz
 q only:        4.762      -0.001       4.762       0.154       0.108      -9.524
  q+dip:        6.530      -0.001       6.531       0.211       0.147     -13.060
   full:        4.615      -0.001       4.615       0.150       0.104      -9.230

           -------------------------------------------------
          |                Geometry Summary                 |
           -------------------------------------------------

      molecular mass/u    :       78.1120599
   center of mass at/Å    :        0.0085800       0.0064957       0.0167450
  moments of inertia/u·Å² :        0.8920901E+02   0.8921024E+02   0.1784192E+03
rotational constants/cm⁻¹ :        0.1889678E+00   0.1889652E+00   0.9448326E-01

 * 12 selected distances

     #   Z        #   Z                                     value/Å
     1   6 C      2   6 C                                 1.3996787
     2   6 C      3   6 C                                 1.3996762
     3   6 C      4   6 C                                 1.3996847 (max)
     4   6 C      5   6 C                                 1.3996787
     1   6 C      6   6 C                                 1.3996847
     5   6 C      6   6 C                                 1.3996762
     1   6 C      7   1 H                                 1.0817253
     2   6 C      8   1 H                                 1.0817243
     3   6 C      9   1 H                                 1.0817248
     4   6 C     10   1 H                                 1.0817251
     5   6 C     11   1 H                                 1.0817242 (min)
     6   6 C     12   1 H                                 1.0817248

 * 2 distinct bonds (by element types)

   Z      Z             #   av. dist./Å        max./Å        min./Å
   1 H    6 C           6     1.0817247     1.0817253     1.0817242
   6 C    6 C           6     1.3996799     1.3996847     1.3996762


optimized geometry written to: xtbopt.xyz


           -------------------------------------------------
          | TOTAL ENERGY              -15.358208434260 Eh   |
          | GRADIENT NORM               0.000327175694 Eh/α |
          | HOMO-LUMO GAP               4.842740511729 eV   |
           -------------------------------------------------

------------------------------------------------------------------------
 * finished run on 2022/07/13 at 14:43:18.293     
------------------------------------------------------------------------
 total:
 * wall-time:     0 d,  0 h,  0 min,  0.062 sec
 *  cpu-time:     0 d,  0 h,  0 min,  0.417 sec
 * ratio c/w:     6.671 speedup
 SCF:
 * wall-time:     0 d,  0 h,  0 min,  0.006 sec
 *  cpu-time:     0 d,  0 h,  0 min,  0.044 sec
 * ratio c/w:     7.762 speedup
 ANC optimizer:
 * wall-time:     0 d,  0 h,  0 min,  0.020 sec
 *  cpu-time:     0 d,  0 h,  0 min,  0.158 sec
 * ratio c/w:     7.802 speedup

