12
 energy: -15.358041009316 gnorm: 0.015880682030 xtb: 6.2.2 (655bc02)
C          -0.75142000000000    1.17608000000000    0.01735000000000
C           0.64139000000000    1.24941000000000    0.03287000000000
C           1.40139000000000    0.07982000000000    0.03227000000000
C           0.76858000000000   -1.16309000000000    0.01614000000000
C          -0.62423000000000   -1.23642000000000    0.00062000000000
C          -1.38423000000000   -0.06683000000000    0.00122000000000
H          -1.34355000000000    2.08733000000000    0.01782000000000
H           1.13442000000000    2.21778000000000    0.04544000000000
H           2.48655000000000    0.13695000000000    0.04436000000000
H           1.36071000000000   -2.07433000000000    0.01567000000000
H          -1.11726000000000   -2.20479000000000   -0.01195000000000
H          -2.46939000000000   -0.12396000000000   -0.01087000000000
12
 energy: -15.358181702279 gnorm: 0.006209181843 xtb: 6.2.2 (655bc02)
C          -0.75292213227975    1.17839141955564    0.01734643413929
C           0.64263979323463    1.25186630413754    0.03290077660961
C           1.40414186338040    0.07996502807974    0.03230064462090
C           0.77008203725103   -1.16540061355183    0.01614354393546
C          -0.62547994287531   -1.23887497945372    0.00058922061652
C          -1.38698210087923   -0.06697378721697    0.00118935105040
H          -1.34324499785796    2.08685838784584    0.01782619073390
H           1.13416686849687    2.21728397521682    0.04543040360065
H           2.48599219123457    0.13692106690597    0.04435756032473
H           1.36040600198252   -2.07386439631878    0.01566382167558
H          -1.11700714234299   -2.20429257934283   -0.01194039485495
H          -2.46883243934478   -0.12392982585742   -0.01086755245210
12
 energy: -15.358208176902 gnorm: 0.000299176699 xtb: 6.2.2 (655bc02)
C          -0.75407172028219    1.18016251175977    0.01733565409900
C           0.64359668196032    1.25374738202015    0.03290612501085
C           1.40624854781952    0.08007625526587    0.03233738883979
C           0.77123159371394   -1.16717100144305    0.01615435518381
C          -0.62643676609347   -1.24075565973624    0.00058388586347
C          -1.38908870240352   -0.06708452396151    0.00115262143204
H          -1.34336911463987    2.08704915592561    0.01786447259324
H           1.13427027808513    2.21748848586962    0.04541214645749
H           2.48621946770399    0.13693356915665    0.04438424499021
H           1.36052992605609   -2.07405779690750    0.01562549984664
H          -1.11711057351334   -2.20449673632310   -0.01192214958467
H          -2.46905961840659   -0.12394164162627   -0.01089424473189
12
 energy: -15.358208436930 gnorm: 0.000326911630 xtb: 6.2.2 (655bc02)
C          -0.75406151580016    1.18015208622811    0.01732851958370
C           0.64359595124693    1.25373857361576    0.03279458409204
C           1.40623571085460    0.08008021576776    0.03242654323117
C           0.77122141295212   -1.16716060744741    0.01616148427834
C          -0.62643597007018   -1.24074711994567    0.00069544875750
C          -1.38907577705430   -0.06708874434840    0.00106348803890
H          -1.34346766549855    2.08719637880232    0.01818191374662
H           1.13435783492064    2.21765108457873    0.04516356703928
H           2.48639561471427    0.13694524240980    0.04464948386003
H           1.36062809518915   -2.07420423560020    0.01530797313363
H          -1.11719799150886   -2.20465941948541   -0.01167354325579
H          -2.46923569994567   -0.12395345457540   -0.01115946250544
