[Molden Format]
[Title]
[Atoms] AU
C      1     6 -0.10954116161627E+00  0.19465180991098E+02  0.65564102336180E+01
C      2     6  0.16340155507207E+01  0.20804934862380E+02  0.52295772324496E+01
S      3    16  0.24081237190967E+01  0.19374270073743E+02  0.24190209918763E+01
C      4     6  0.32746691774959E+00  0.16896736611002E+02  0.30338224774557E+01
C      5     6  0.36229821453356E-01  0.14872670952234E+02  0.12829460526807E+01
C      6     6  0.12446386782897E+01  0.14522248859570E+02 -0.99000541129638E+00
C      7     6  0.51350186135624E+00  0.12315157541480E+02 -0.22409596868081E+01
C      8     6 -0.12712206621798E+01  0.10935864340105E+02 -0.94800727353415E+00
C      9     6 -0.24222424756461E+01  0.86169621440256E+01 -0.16606047496478E+01
C     10     6 -0.42443297858578E+01  0.72628833646154E+01 -0.39118991104096E+00
C     11     6 -0.49611405701888E+01  0.50469514151602E+01 -0.16303440903742E+01
C     12     6 -0.37002354627986E+01  0.46588794149041E+01 -0.38718889739457E+01
C     13     6 -0.39556027948105E+01  0.26148864818280E+01 -0.55943428790871E+01
C     14     6 -0.26709722636995E+01  0.22089731690196E+01 -0.78179507255939E+01
C     15     6 -0.33896338214058E+01 -0.90300468422045E-02 -0.90567924844874E+01
C     16     6 -0.52372834169908E+01 -0.13407351441487E+01 -0.78069362456847E+01
C     17     6 -0.64025099683772E+01 -0.36579215700867E+01 -0.85280137580642E+01
C     18     6 -0.82522514694877E+01 -0.49856139388229E+01 -0.72880122143511E+01
C     19     6 -0.89673337085043E+01 -0.72101358983595E+01 -0.85543838464813E+01
C     20     6 -0.76691965265002E+01 -0.75696661829646E+01 -0.10740950121099E+02
S     21    16 -0.55328371704894E+01 -0.51910886927989E+01 -0.11309914507176E+02
S     22    16 -0.61080027064555E+01  0.18773641127012E+00 -0.50249314764188E+01
S     23    16 -0.15755490004232E+01  0.71048153103662E+01 -0.44607610205933E+01
S     24    16 -0.20631250069745E+01  0.12411064600408E+02  0.18882926359706E+01
C     25     6 -0.85960085015546E+00  0.17239215874010E+02  0.53131940434296E+01
H     26     1 -0.83600496215838E+00  0.20046965806972E+02  0.83626230122530E+01
H     27     1  0.25241302943906E+01  0.22555422142584E+02  0.57243078898961E+01
H     28     1  0.26165952894102E+01  0.15838855023183E+02 -0.17088820802747E+01
H     29     1  0.12525454454357E+01  0.11724383141234E+02 -0.40401632500884E+01
H     30     1 -0.50206477217524E+01  0.78815744939820E+01  0.13827482405071E+01
H     31     1 -0.63580542706828E+01  0.37472138391173E+01 -0.92920980438834E+00
H     32     1 -0.12547312033908E+01  0.34940397396910E+01 -0.85072687337523E+01
H     33     1 -0.25936872805445E+01 -0.64039270671362E+00 -0.10817569490938E+02
H     34     1 -0.90554804885406E+01 -0.43631897904350E+01 -0.55277581762949E+01
H     35     1 -0.10388452226064E+02 -0.84904155864906E+01 -0.78687197020649E+01
H     36     1 -0.78295459271966E+01 -0.90909665721585E+01 -0.12068128364235E+02
H     37     1 -0.22196660121634E+01  0.15920698613530E+02  0.60499152961735E+01
[GTO]
           1 0
 s           4   1.00000000000000     
   51.0493630955799      -0.163120632101274     
   8.79112274068875      -0.199110245810007     
  0.706404222589298       0.318820477536558     
  0.269228134134116       0.127065041842404     
 p           4   1.00000000000000     
   5.82636561408000       0.737164515452096     
   1.51068960187200       0.682163716148503     
  0.532564832880000       0.357830539292537     
  0.212023236906000       5.398303027584788E-002
 
           2 0
 s           4   1.00000000000000     
   51.0493630955799      -0.163120632101274     
   8.79112274068875      -0.199110245810007     
  0.706404222589298       0.318820477536558     
  0.269228134134116       0.127065041842404     
 p           4   1.00000000000000     
   5.82636561408000       0.737164515452096     
   1.51068960187200       0.682163716148503     
  0.532564832880000       0.357830539292537     
  0.212023236906000       5.398303027584788E-002
 
           3 0
 s           4   1.00000000000000     
   5.94059715667128      -8.937241731159805E-002
   1.67332031646937      -0.180826416098390     
  0.300052353376111       0.217239963388792     
  0.147626982610695       6.093036238655329E-002
 p           4   1.00000000000000     
   7.60402394306428      -0.258148203245547     
  0.785799530644415       0.290555694475872     
  0.355154539932778       0.228494836712103     
  0.171689541475341       3.379048730081900E-002
 d           3   1.00000000000000     
   1.51575937639239       0.574808919567051     
  0.475268595433768       0.261853961962925     
  0.185128831077629       3.488754942672512E-002
 
           4 0
 s           4   1.00000000000000     
   51.0493630955799      -0.163120632101274     
   8.79112274068875      -0.199110245810007     
  0.706404222589298       0.318820477536558     
  0.269228134134116       0.127065041842404     
 p           4   1.00000000000000     
   5.82636561408000       0.737164515452096     
   1.51068960187200       0.682163716148503     
  0.532564832880000       0.357830539292537     
  0.212023236906000       5.398303027584788E-002
 
           5 0
 s           4   1.00000000000000     
   51.0493630955799      -0.163120632101274     
   8.79112274068875      -0.199110245810007     
  0.706404222589298       0.318820477536558     
  0.269228134134116       0.127065041842404     
 p           4   1.00000000000000     
   5.82636561408000       0.737164515452096     
   1.51068960187200       0.682163716148503     
  0.532564832880000       0.357830539292537     
  0.212023236906000       5.398303027584788E-002
 
           6 0
 s           4   1.00000000000000     
   51.0493630955799      -0.163120632101274     
   8.79112274068875      -0.199110245810007     
  0.706404222589298       0.318820477536558     
  0.269228134134116       0.127065041842404     
 p           4   1.00000000000000     
   5.82636561408000       0.737164515452096     
   1.51068960187200       0.682163716148503     
  0.532564832880000       0.357830539292537     
  0.212023236906000       5.398303027584788E-002
 
           7 0
 s           4   1.00000000000000     
   51.0493630955799      -0.163120632101274     
   8.79112274068875      -0.199110245810007     
  0.706404222589298       0.318820477536558     
  0.269228134134116       0.127065041842404     
 p           4   1.00000000000000     
   5.82636561408000       0.737164515452096     
   1.51068960187200       0.682163716148503     
  0.532564832880000       0.357830539292537     
  0.212023236906000       5.398303027584788E-002
 
           8 0
 s           4   1.00000000000000     
   51.0493630955799      -0.163120632101274     
   8.79112274068875      -0.199110245810007     
  0.706404222589298       0.318820477536558     
  0.269228134134116       0.127065041842404     
 p           4   1.00000000000000     
   5.82636561408000       0.737164515452096     
   1.51068960187200       0.682163716148503     
  0.532564832880000       0.357830539292537     
  0.212023236906000       5.398303027584788E-002
 
           9 0
 s           4   1.00000000000000     
   51.0493630955799      -0.163120632101274     
   8.79112274068875      -0.199110245810007     
  0.706404222589298       0.318820477536558     
  0.269228134134116       0.127065041842404     
 p           4   1.00000000000000     
   5.82636561408000       0.737164515452096     
   1.51068960187200       0.682163716148503     
  0.532564832880000       0.357830539292537     
  0.212023236906000       5.398303027584788E-002
 
          10 0
 s           4   1.00000000000000     
   51.0493630955799      -0.163120632101274     
   8.79112274068875      -0.199110245810007     
  0.706404222589298       0.318820477536558     
  0.269228134134116       0.127065041842404     
 p           4   1.00000000000000     
   5.82636561408000       0.737164515452096     
   1.51068960187200       0.682163716148503     
  0.532564832880000       0.357830539292537     
  0.212023236906000       5.398303027584788E-002
 
          11 0
 s           4   1.00000000000000     
   51.0493630955799      -0.163120632101274     
   8.79112274068875      -0.199110245810007     
  0.706404222589298       0.318820477536558     
  0.269228134134116       0.127065041842404     
 p           4   1.00000000000000     
   5.82636561408000       0.737164515452096     
   1.51068960187200       0.682163716148503     
  0.532564832880000       0.357830539292537     
  0.212023236906000       5.398303027584788E-002
 
          12 0
 s           4   1.00000000000000     
   51.0493630955799      -0.163120632101274     
   8.79112274068875      -0.199110245810007     
  0.706404222589298       0.318820477536558     
  0.269228134134116       0.127065041842404     
 p           4   1.00000000000000     
   5.82636561408000       0.737164515452096     
   1.51068960187200       0.682163716148503     
  0.532564832880000       0.357830539292537     
  0.212023236906000       5.398303027584788E-002
 
          13 0
 s           4   1.00000000000000     
   51.0493630955799      -0.163120632101274     
   8.79112274068875      -0.199110245810007     
  0.706404222589298       0.318820477536558     
  0.269228134134116       0.127065041842404     
 p           4   1.00000000000000     
   5.82636561408000       0.737164515452096     
   1.51068960187200       0.682163716148503     
  0.532564832880000       0.357830539292537     
  0.212023236906000       5.398303027584788E-002
 
          14 0
 s           4   1.00000000000000     
   51.0493630955799      -0.163120632101274     
   8.79112274068875      -0.199110245810007     
  0.706404222589298       0.318820477536558     
  0.269228134134116       0.127065041842404     
 p           4   1.00000000000000     
   5.82636561408000       0.737164515452096     
   1.51068960187200       0.682163716148503     
  0.532564832880000       0.357830539292537     
  0.212023236906000       5.398303027584788E-002
 
          15 0
 s           4   1.00000000000000     
   51.0493630955799      -0.163120632101274     
   8.79112274068875      -0.199110245810007     
  0.706404222589298       0.318820477536558     
  0.269228134134116       0.127065041842404     
 p           4   1.00000000000000     
   5.82636561408000       0.737164515452096     
   1.51068960187200       0.682163716148503     
  0.532564832880000       0.357830539292537     
  0.212023236906000       5.398303027584788E-002
 
          16 0
 s           4   1.00000000000000     
   51.0493630955799      -0.163120632101274     
   8.79112274068875      -0.199110245810007     
  0.706404222589298       0.318820477536558     
  0.269228134134116       0.127065041842404     
 p           4   1.00000000000000     
   5.82636561408000       0.737164515452096     
   1.51068960187200       0.682163716148503     
  0.532564832880000       0.357830539292537     
  0.212023236906000       5.398303027584788E-002
 
          17 0
 s           4   1.00000000000000     
   51.0493630955799      -0.163120632101274     
   8.79112274068875      -0.199110245810007     
  0.706404222589298       0.318820477536558     
  0.269228134134116       0.127065041842404     
 p           4   1.00000000000000     
   5.82636561408000       0.737164515452096     
   1.51068960187200       0.682163716148503     
  0.532564832880000       0.357830539292537     
  0.212023236906000       5.398303027584788E-002
 
          18 0
 s           4   1.00000000000000     
   51.0493630955799      -0.163120632101274     
   8.79112274068875      -0.199110245810007     
  0.706404222589298       0.318820477536558     
  0.269228134134116       0.127065041842404     
 p           4   1.00000000000000     
   5.82636561408000       0.737164515452096     
   1.51068960187200       0.682163716148503     
  0.532564832880000       0.357830539292537     
  0.212023236906000       5.398303027584788E-002
 
          19 0
 s           4   1.00000000000000     
   51.0493630955799      -0.163120632101274     
   8.79112274068875      -0.199110245810007     
  0.706404222589298       0.318820477536558     
  0.269228134134116       0.127065041842404     
 p           4   1.00000000000000     
   5.82636561408000       0.737164515452096     
   1.51068960187200       0.682163716148503     
  0.532564832880000       0.357830539292537     
  0.212023236906000       5.398303027584788E-002
 
          20 0
 s           4   1.00000000000000     
   51.0493630955799      -0.163120632101274     
   8.79112274068875      -0.199110245810007     
  0.706404222589298       0.318820477536558     
  0.269228134134116       0.127065041842404     
 p           4   1.00000000000000     
   5.82636561408000       0.737164515452096     
   1.51068960187200       0.682163716148503     
  0.532564832880000       0.357830539292537     
  0.212023236906000       5.398303027584788E-002
 
          21 0
 s           4   1.00000000000000     
   5.94059715667128      -8.937241731159805E-002
   1.67332031646937      -0.180826416098390     
  0.300052353376111       0.217239963388792     
  0.147626982610695       6.093036238655329E-002
 p           4   1.00000000000000     
   7.60402394306428      -0.258148203245547     
  0.785799530644415       0.290555694475872     
  0.355154539932778       0.228494836712103     
  0.171689541475341       3.379048730081900E-002
 d           3   1.00000000000000     
   1.51575937639239       0.574808919567051     
  0.475268595433768       0.261853961962925     
  0.185128831077629       3.488754942672512E-002
 
          22 0
 s           4   1.00000000000000     
   5.94059715667128      -8.937241731159805E-002
   1.67332031646937      -0.180826416098390     
  0.300052353376111       0.217239963388792     
  0.147626982610695       6.093036238655329E-002
 p           4   1.00000000000000     
   7.60402394306428      -0.258148203245547     
  0.785799530644415       0.290555694475872     
  0.355154539932778       0.228494836712103     
  0.171689541475341       3.379048730081900E-002
 d           3   1.00000000000000     
   1.51575937639239       0.574808919567051     
  0.475268595433768       0.261853961962925     
  0.185128831077629       3.488754942672512E-002
 
          23 0
 s           4   1.00000000000000     
   5.94059715667128      -8.937241731159805E-002
   1.67332031646937      -0.180826416098390     
  0.300052353376111       0.217239963388792     
  0.147626982610695       6.093036238655329E-002
 p           4   1.00000000000000     
   7.60402394306428      -0.258148203245547     
  0.785799530644415       0.290555694475872     
  0.355154539932778       0.228494836712103     
  0.171689541475341       3.379048730081900E-002
 d           3   1.00000000000000     
   1.51575937639239       0.574808919567051     
  0.475268595433768       0.261853961962925     
  0.185128831077629       3.488754942672512E-002
 
          24 0
 s           4   1.00000000000000     
   5.94059715667128      -8.937241731159805E-002
   1.67332031646937      -0.180826416098390     
  0.300052353376111       0.217239963388792     
  0.147626982610695       6.093036238655329E-002
 p           4   1.00000000000000     
   7.60402394306428      -0.258148203245547     
  0.785799530644415       0.290555694475872     
  0.355154539932778       0.228494836712103     
  0.171689541475341       3.379048730081900E-002
 d           3   1.00000000000000     
   1.51575937639239       0.574808919567051     
  0.475268595433768       0.261853961962925     
  0.185128831077629       3.488754942672512E-002
 
          25 0
 s           4   1.00000000000000     
   51.0493630955799      -0.163120632101274     
   8.79112274068875      -0.199110245810007     
  0.706404222589298       0.318820477536558     
  0.269228134134116       0.127065041842404     
 p           4   1.00000000000000     
   5.82636561408000       0.737164515452096     
   1.51068960187200       0.682163716148503     
  0.532564832880000       0.357830539292537     
  0.212023236906000       5.398303027584788E-002
 
          26 0
 s           3   1.00000000000000     
   3.37022769753360       0.273591105889083     
  0.613891182214980       0.264605406538605     
  0.166142911484160       8.246594753408230E-002
 
          27 0
 s           3   1.00000000000000     
   3.37022769753360       0.273591105889083     
  0.613891182214980       0.264605406538605     
  0.166142911484160       8.246594753408230E-002
 
          28 0
 s           3   1.00000000000000     
   3.37022769753360       0.273591105889083     
  0.613891182214980       0.264605406538605     
  0.166142911484160       8.246594753408230E-002
 
          29 0
 s           3   1.00000000000000     
   3.37022769753360       0.273591105889083     
  0.613891182214980       0.264605406538605     
  0.166142911484160       8.246594753408230E-002
 
          30 0
 s           3   1.00000000000000     
   3.37022769753360       0.273591105889083     
  0.613891182214980       0.264605406538605     
  0.166142911484160       8.246594753408230E-002
 
          31 0
 s           3   1.00000000000000     
   3.37022769753360       0.273591105889083     
  0.613891182214980       0.264605406538605     
  0.166142911484160       8.246594753408230E-002
 
          32 0
 s           3   1.00000000000000     
   3.37022769753360       0.273591105889083     
  0.613891182214980       0.264605406538605     
  0.166142911484160       8.246594753408230E-002
 
          33 0
 s           3   1.00000000000000     
   3.37022769753360       0.273591105889083     
  0.613891182214980       0.264605406538605     
  0.166142911484160       8.246594753408230E-002
 
          34 0
 s           3   1.00000000000000     
   3.37022769753360       0.273591105889083     
  0.613891182214980       0.264605406538605     
  0.166142911484160       8.246594753408230E-002
 
          35 0
 s           3   1.00000000000000     
   3.37022769753360       0.273591105889083     
  0.613891182214980       0.264605406538605     
  0.166142911484160       8.246594753408230E-002
 
          36 0
 s           3   1.00000000000000     
   3.37022769753360       0.273591105889083     
  0.613891182214980       0.264605406538605     
  0.166142911484160       8.246594753408230E-002
 
          37 0
 s           3   1.00000000000000     
   3.37022769753360       0.273591105889083     
  0.613891182214980       0.264605406538605     
  0.166142911484160       8.246594753408230E-002
 
[MO]
Sym=     1a
Ene=  -0.735462331057595     
Spin= Alpha
Occup=     2.00000000
           1 -1.105713276287050E-003
           2 -4.515172395192401E-004
           3 -3.918240641986143E-005
           4  6.811598078027975E-004
           5 -4.708086469096525E-003
           6 -6.483971973439798E-004
           7  1.700047110562438E-003
           8  2.904796730712786E-003
           9 -4.582381261778379E-002
          10  1.663754741048949E-004
          11 -1.334643745450628E-004
          12 -4.157528972135014E-004
          13 -2.081095246084651E-005
          14  1.207970092666963E-004
          15 -9.998605680584977E-005
          16  3.005976180606609E-004
          17 -1.206957083840594E-004
          18 -5.001853374373467E-006
          19  2.732605637526916E-004
          20 -3.851457565871960E-003
          21 -7.073721813512174E-003
          22 -1.623868793314677E-003
          23  3.815662426240832E-002
          24 -1.660230955104066E-002
          25 -2.050897590888762E-002
          26  3.658222191270407E-003
          27  8.973046264673577E-003
          28 -4.744932123695141E-003
          29 -2.694961904093461E-003
          30  4.495404430148544E-003
          31  7.472592430268790E-003
          32 -2.828969460579525E-003
          33  1.079189122140266E-003
          34  5.565044646961332E-003
          35  2.751870547825406E-002
          36 -3.219755569134668E-003
          37  2.177395040422215E-002
          38  2.839876472828408E-002
          39 -7.727825097080006E-002
          40 -1.166299608802668E-002
          41  3.143427102480162E-002
          42  4.963619466299730E-002
          43 -1.847303023703252E-002
          44 -8.296816210214979E-003
          45  1.984234714801460E-004
          46  1.236329536083276E-002
          47 -1.848194584765108E-002
          48 -1.033164669016477E-002
          49 -6.038341359038524E-003
          50  8.871320905339706E-003
          51 -7.734689460930505E-002
          52 -3.696495296253837E-002
          53 -4.670843846615613E-002
          54  5.920631168316030E-003
          55  2.710512190100316E-002
          56 -2.035447924632493E-002
          57 -2.926399061083107E-002
          58 -9.291181539235501E-004
          59  7.376310697778453E-003
          60 -4.437803083791322E-003
          61 -3.398141313394653E-003
          62  2.819677273859492E-003
          63  8.877797408194622E-003
          64 -4.111474903023488E-003
          65 -1.363728063407830E-004
          66  5.655312183750166E-003
          67  3.775159539784333E-002
          68 -6.032590200422711E-003
          69  1.324262250208097E-002
          70  2.197007082322419E-002
          71  2.860628294416112E-004
          72  3.219339370979727E-004
          73  5.908264197964087E-003
          74  5.563093203424123E-003
          75 -4.294751779493699E-004
          76  3.446062268947247E-005
          77  5.805444487495307E-004
          78  5.436452321286187E-004
          79 -1.090976164427573E-003
          80 -5.653902950233331E-004
          81 -2.884113427741072E-004
          82  4.984516335675194E-004
          83 -4.645290221298236E-003
          84 -2.147145232106700E-003
          85 -2.586018412806714E-003
          86  3.721431505776783E-004
          87 -4.521293979146876E-002
          88  3.221481052565753E-004
          89  2.912463161000803E-004
          90 -1.547186793547526E-004
          91 -1.393556880837795E-004
          92 -2.144237610203893E-005
          93  1.607980641858185E-004
          94  2.478009724424323E-005
          95 -1.688180463497750E-004
          96  2.439416567420677E-004
          97  0.349506524652210     
          98  2.609814932117886E-003
          99  3.190430278061685E-004
         100 -3.328421295461818E-003
         101 -4.679471860737559E-004
         102  3.538927220470569E-004
         103  1.140544640266990E-004
         104 -5.804326507574856E-005
         105  2.632971302873426E-004
         106  7.906730499661866E-004
         107 -0.748239646754373     
         108  6.270597324718696E-003
         109  1.954280904507106E-003
         110 -7.109766074798973E-003
         111  1.126170860903441E-003
         112 -1.551128990512569E-003
         113  4.249581296091284E-004
         114 -1.228000781278424E-003
         115 -4.554087780525962E-004
         116 -1.959706787973694E-003
         117  0.353236959714424     
         118  2.819875944588234E-003
         119  1.412888624466896E-003
         120 -2.912161258221769E-003
         121 -1.490576205009530E-004
         122  6.493049701728204E-004
         123 -5.002473496718673E-004
         124  5.281166561978355E-004
         125  3.561702222553633E-004
         126  3.040920766298871E-004
         127 -4.381154227547115E-004
         128 -3.774097080621575E-004
         129 -6.930607635347498E-004
         130 -1.604444764013079E-004
         131  1.424273040187769E-004
         132  6.939110494137098E-004
         133 -4.674024022537115E-004
         134  5.833539436128077E-003
         135 -1.369024626906756E-003
         136 -1.337578730329655E-003
         137  5.842317089556525E-003
         138 -4.641894711577531E-004
         139 -2.997959660762663E-003
         140  1.405792769843952E-004
         141  6.846789796653452E-004
         142 -3.028093056053132E-003
Sym=     2a
Ene=  -0.735091829726465     
Spin= Alpha
Occup=     2.00000000
           1  2.636080592509232E-003
           2  1.090297632663104E-003
           3  6.768517507125282E-005
           4 -1.674502873123632E-003
           5  1.129707368305786E-002
           6  1.544766892288512E-003
           7 -4.112195787921265E-003
           8 -6.988156212304838E-003
           9  0.109846452969540     
          10 -5.250710965482204E-004
          11  1.282069735809990E-004
          12  9.883133646696213E-004
          13  1.069707878995620E-006
          14 -1.541626892568536E-004
          15  1.530929813778579E-004
          16 -5.003853181672492E-004
          17  2.524513293641652E-004
          18  7.609916792474290E-005
          19  2.607189407695033E-003
          20  8.153797034644354E-003
          21  1.422037004501622E-002
          22  2.599868791071436E-003
          23 -6.776367414920302E-002
          24  2.985844795162532E-002
          25  3.720092436476533E-002
          26 -6.234125211373540E-003
          27 -1.590044927470468E-002
          28  8.646113440594063E-003
          29  5.093489961739264E-003
          30 -7.995061355362387E-003
          31 -1.620225292242928E-002
          32  7.294515085537262E-003
          33  5.641191974599490E-004
          34 -1.078214497453050E-002
          35 -6.990936542657393E-002
          36  1.009832893263517E-002
          37 -2.221173936731705E-002
          38 -3.984204372760937E-002
          39 -1.055112338914566E-002
          40 -2.264652205594328E-003
          41 -7.662632282059814E-003
          42 -4.778878428523082E-003
          43 -1.560868735187155E-003
          44 -1.146945045277153E-003
          45 -1.236197378102533E-003
          46  3.844225220866801E-004
          47  1.185798425363630E-003
          48  2.965844707859010E-004
          49 -8.243471404936010E-004
          50 -1.290383192248761E-003
          51  8.879041200202607E-003
          52 -3.489149262333060E-003
          53 -8.591881183592392E-003
          54 -3.808722254838466E-003
          55  6.882142751776962E-002
          56 -2.970566630635840E-002
          57 -3.493586039492928E-002
          58  6.415299356263490E-003
          59  1.596934637278782E-002
          60 -8.968795583854423E-003
          61 -4.633594532622919E-003
          62  7.942941041838616E-003
          63  1.570118761220079E-002
          64 -7.342096737944849E-003
          65 -2.347366935110119E-005
          66  1.032161593736553E-002
          67  6.691633991433321E-002
          68 -1.058936144244481E-002
          69  2.415826703155595E-002
          70  3.949643190427697E-002
          71 -2.526710684796330E-003
          72  1.038100817744424E-004
          73  1.153757864276482E-002
          74  1.160159040153856E-002
          75 -1.462848323175809E-003
          76 -2.762639796115715E-004
          77  9.921413335044966E-004
          78  1.399290201064627E-003
          79 -2.593402404385394E-003
          80 -1.381815716232007E-003
          81 -7.277487261922889E-004
          82  1.194928289222559E-003
          83 -1.111414038227199E-002
          84 -5.147362010963909E-003
          85 -6.219465868195780E-003
          86  8.719232583915210E-004
          87 -0.108068542736821     
          88  7.905424885288569E-004
          89  5.534182891034008E-004
          90 -5.437916925295888E-004
          91 -2.080545443283777E-004
          92 -9.622966199982212E-005
          93  3.042842063281998E-004
          94  1.469352239370118E-005
          95 -3.360618930444059E-004
          96  3.644572139438470E-004
          97  0.622800561734542     
          98  5.483855172502548E-003
          99  1.819656144507204E-003
         100 -5.837371679852025E-003
         101 -1.070687713124003E-003
         102  1.508620934188273E-003
         103 -4.379332210642693E-004
         104  1.381161159807088E-003
         105  3.000596204290282E-004
         106  1.893686768406132E-003
         107 -7.013226894278367E-003
         108 -2.728015275921581E-004
         109 -1.016859738957098E-003
         110 -6.533606393704243E-004
         111  2.908295120147228E-004
         112  2.494366532706291E-004
         113 -5.402661652853519E-004
         114  5.395533906201728E-004
         115  1.012339635491676E-004
         116 -5.202210497096730E-004
         117 -0.630675710074252     
         118 -5.125975670188239E-003
         119 -1.559551634503760E-003
         120  6.378053690894533E-003
         121  1.176636883918730E-003
         122 -1.433365627823035E-003
         123  2.567287439043051E-004
         124 -1.279468985179584E-003
         125 -3.010100440927787E-004
         126 -2.051761393227890E-003
         127  1.493188489675084E-003
         128  1.038972978769120E-003
         129  1.423392955945591E-003
         130 -9.446016821324642E-005
         131 -3.289204699982124E-004
         132 -1.655338043749835E-003
         133  5.056556602911419E-004
         134  1.537172616172003E-003
         135  5.664888098432908E-003
         136 -5.565762828091329E-003
         137 -1.393185325029343E-003
         138 -5.041243293902996E-004
         139 -5.302176630985383E-003
         140  3.237138174880485E-004
         141  1.628582930099495E-003
         142  5.365403465108684E-003
Sym=     3a
Ene=  -0.734927083544894     
Spin= Alpha
Occup=     2.00000000
           1 -2.519860504778856E-003
           2 -1.048069960587189E-003
           3 -5.381445224075318E-005
           4  1.622049457782239E-003
           5 -1.082782890341806E-002
           6 -1.475565100519867E-003
           7  3.955624695923573E-003
           8  6.705308588450525E-003
           9 -0.105236961077127     
          10  5.566038187896638E-004
          11 -4.152483803589147E-005
          12 -9.433503706023820E-004
          13  2.073535713081262E-005
          14  8.809355685847803E-005
          15 -1.088289139892906E-004
          16  3.839884770087425E-004
          17 -2.269597978026984E-004
          18 -1.019433592046073E-004