      -----------------------------------------------------------      
     |                   =====================                   |     
     |                           x T B                           |     
     |                   =====================                   |     
     |                         S. Grimme                         |     
     |          Mulliken Center for Theoretical Chemistry        |     
     |                    University of Bonn                     |     
      -----------------------------------------------------------      

   * xtb version 6.5.0 (746241f) compiled by 'ehlert@majestix' on 2022-05-15

   xtb is free software: you can redistribute it and/or modify it under
   the terms of the GNU Lesser General Public License as published by
   the Free Software Foundation, either version 3 of the License, or
   (at your option) any later version.
   
   xtb is distributed in the hope that it will be useful,
   but WITHOUT ANY WARRANTY; without even the implied warranty of
   MERCHANTABILITY or FITNESS FOR A PARTICULAR PURPOSE.  See the
   GNU Lesser General Public License for more details.
   
   Cite this work as:
   * C. Bannwarth, E. Caldeweyher, S. Ehlert, A. Hansen, P. Pracht,
     J. Seibert, S. Spicher, S. Grimme, WIREs Comput. Mol. Sci., 2020, 11,
     e01493. DOI: 10.1002/wcms.1493
   
   for GFN2-xTB:
   * C. Bannwarth, S. Ehlert and S. Grimme., J. Chem. Theory Comput., 2019,
     15, 1652-1671. DOI: 10.1021/acs.jctc.8b01176
   for GFN1-xTB:
   * S. Grimme, C. Bannwarth, P. Shushkov, J. Chem. Theory Comput., 2017,
     13, 1989-2009. DOI: 10.1021/acs.jctc.7b00118
   for GFN0-xTB:
   * P. Pracht, E. Caldeweyher, S. Ehlert, S. Grimme, ChemRxiv, 2019, preprint.
     DOI: 10.26434/chemrxiv.8326202.v1
   for GFN-FF:
   * S. Spicher and S. Grimme, Angew. Chem. Int. Ed., 2020, 59, 15665-15673.
     DOI: 10.1002/anie.202004239
   
   for ALPB and GBSA implicit solvation:
   * S. Ehlert, M. Stahn, S. Spicher, S. Grimme, J. Chem. Theory Comput.,
     2021, 17, 4250-4261. DOI: 10.1021/acs.jctc.1c00471
   
   for DFT-D4:
   * E. Caldeweyher, C. Bannwarth and S. Grimme, J. Chem. Phys., 2017,
     147, 034112. DOI: 10.1063/1.4993215
   * E. Caldeweyher, S. Ehlert, A. Hansen, H. Neugebauer, S. Spicher,
     C. Bannwarth and S. Grimme, J. Chem. Phys., 2019, 150, 154122.
     DOI: 10.1063/1.5090222
   * E. Caldeweyher, J.-M. Mewes, S. Ehlert and S. Grimme, Phys. Chem. Chem. Phys.
     2020, 22, 8499-8512. DOI: 10.1039/D0CP00502A
   
   for sTDA-xTB:
   * S. Grimme and C. Bannwarth, J. Chem. Phys., 2016, 145, 054103.
     DOI: 10.1063/1.4959605
   
   in the mass-spec context:
   * V. Asgeirsson, C. Bauer and S. Grimme, Chem. Sci., 2017, 8, 4879.
     DOI: 10.1039/c7sc00601b
   * J. Koopman and S. Grimme, ACS Omega 2019, 4, 12, 15120-15133.
     DOI: 10.1021/acsomega.9b02011
   
   for metadynamics refer to:
   * S. Grimme, J. Chem. Theory Comput., 2019, 155, 2847-2862
     DOI: 10.1021/acs.jctc.9b00143
   
   for SPH calculations refer to:
   * S. Spicher and S. Grimme, J. Chem. Theory Comput., 2021, 17, 1701-1714
     DOI: 10.1021/acs.jctc.0c01306
   
   with help from (in alphabetical order)
   P. Atkinson, C. Bannwarth, F. Bohle, G. Brandenburg, E. Caldeweyher
   M. Checinski, S. Dohm, S. Ehlert, S. Ehrlich, I. Gerasimov, C. Hölzer
   A. Katbashev, J. Koopman, C. Lavigne, S. Lehtola, F. März, M. Müller,
   F. Musil, H. Neugebauer, J. Pisarek, C. Plett, P. Pracht, F. Pultar,
   J. Seibert, P. Shushkov, S. Spicher, M. Stahn, M. Steiner, T. Strunk,
   J. Stückrath, T. Rose, and J. Unsleber
   
 * started run on 2022/07/20 at 15:45:10.040     

           -------------------------------------------------
          |                Calculation Setup                |
           -------------------------------------------------

          program call               : xtb -c 0 -u 0 --opt --molden oligothiophene_n5.xyz
          coordinate file            : oligothiophene_n5.xyz
          omp threads                :                    16

   ID    Z sym.   atoms
    1    6 C      1, 2, 4-20, 25
    2   16 S      3, 21-24
    3    1 H      26-37

           -------------------------------------------------
          |                 G F N 2 - x T B                 |
           -------------------------------------------------

        Reference                      10.1021/acs.jctc.8b01176
      * Hamiltonian:
        H0-scaling (s, p, d)           1.850000    2.230000    2.230000
        zeta-weighting                 0.500000
      * Dispersion:
        s8                             2.700000
        a1                             0.520000
        a2                             5.000000
        s9                             5.000000
      * Repulsion:
        kExp                           1.500000    1.000000
        rExp                           1.000000
      * Coulomb:
        alpha                          2.000000
        third order                    shell-resolved
        anisotropic                    true
        a3                             3.000000
        a5                             4.000000
        cn-shift                       1.200000
        cn-exp                         4.000000
        max-rad                        5.000000


          ...................................................
          :                      SETUP                      :
          :.................................................:
          :  # basis functions                 142          :
          :  # atomic orbitals                 137          :
          :  # shells                           67          :
          :  # electrons                       122          :
          :  max. iterations                   250          :
          :  Hamiltonian                  GFN2-xTB          :
          :  restarted?                      false          :
          :  GBSA solvation                  false          :
          :  PC potential                    false          :
          :  electronic temp.          300.0000000     K    :
          :  accuracy                    1.0000000          :
          :  -> integral cutoff          0.2500000E+02      :
          :  -> integral neglect         0.1000000E-07      :
          :  -> SCF convergence          0.1000000E-05 Eh   :
          :  -> wf. convergence          0.1000000E-03 e    :
          :  Broyden damping             0.4000000          :
          ...................................................

 iter      E             dE          RMSdq      gap      omega  full diag
   1    -62.7609534 -0.627610E+02  0.823E+00    0.36       0.0  T
   2    -55.7891263  0.697183E+01  0.127E+01    0.15       1.0  T
   3    -64.2704942 -0.848137E+01  0.791E+00    0.77       1.0  T
   4    -63.0682424  0.120225E+01  0.680E+00    0.14       1.0  T
   5    -62.8578483  0.210394E+00  0.648E+00    0.05       1.0  T
   6    -64.2658541 -0.140801E+01  0.332E+00    0.38       1.0  T
   7    -64.4320496 -0.166195E+00  0.207E+00    0.49       1.0  T
   8    -64.4960332 -0.639836E-01  0.175E+00    0.56       1.0  T
   9    -64.5306133 -0.345801E-01  0.152E+00    0.57       1.0  T
  10    -64.5786285 -0.480152E-01  0.876E-01    0.49       1.0  T
  11    -64.5964603 -0.178318E-01  0.605E-01    0.52       1.0  T
  12    -64.6026620 -0.620163E-02  0.541E-01    0.55       1.0  T
  13    -64.6033090 -0.647033E-03  0.295E-01    0.59       1.0  T
  14    -64.6048529 -0.154395E-02  0.193E-01    0.56       1.0  T
  15    -64.6055776 -0.724664E-03  0.179E-01    0.50       1.0  T
  16    -64.6055034  0.742048E-04  0.118E-01    0.51       1.0  T
  17    -64.6058226 -0.319234E-03  0.102E-01    0.48       1.0  T
  18    -64.6059911 -0.168420E-03  0.818E-02    0.45       1.0  T
  19    -64.6060732 -0.821903E-04  0.490E-02    0.42       1.0  T
  20    -64.6060976 -0.243967E-04  0.162E-02    0.39       1.0  T
  21    -64.6061070 -0.940637E-05  0.410E-03    0.40       4.0  T
  22    -64.6061070  0.961126E-07  0.384E-03    0.40       4.3  T
  23    -64.6061074 -0.435776E-06  0.152E-03    0.40      10.8  T
  24    -64.6061074 -0.199766E-07  0.857E-04    0.40      19.2  T
  25    -64.6061074 -0.108539E-07  0.529E-04    0.40      31.1  T

   *** convergence criteria satisfied after 25 iterations ***

         #    Occupation            Energy/Eh            Energy/eV
      -------------------------------------------------------------
         1        2.0000           -0.8547912             -23.2601
       ...           ...                  ...                  ...
        55        2.0000           -0.3794850             -10.3263
        56        2.0000           -0.3695653             -10.0564
        57        2.0000           -0.3689577             -10.0399
        58        2.0000           -0.3622348              -9.8569
        59        2.0000           -0.2399390              -6.5291
        60        2.0000           -0.2254944              -6.1360
        61        1.9987           -0.2170522              -5.9063 (HOMO)
        62        0.0007           -0.2024841              -5.5099 (LUMO)
        63        0.0006           -0.2023877              -5.5072
        64        0.0000           -0.1974516              -5.3729
        65                         -0.1917295              -5.2172
        66                         -0.1814487              -4.9375
       ...                                ...                  ...
       137                         12.9824438             353.2703
      -------------------------------------------------------------
                  HL-Gap            0.0145680 Eh            0.3964 eV
             Fermi-level           -0.2100752 Eh           -5.7164 eV

 SCC (total)                   0 d,  0 h,  0 min,  0.066 sec
 SCC setup                      ...        0 min,  0.000 sec (  0.304%)
 Dispersion                     ...        0 min,  0.001 sec (  1.093%)
 classical contributions        ...        0 min,  0.000 sec (  0.286%)
 integral evaluation            ...        0 min,  0.002 sec (  3.715%)
 iterations                     ...        0 min,  0.056 sec ( 85.853%)
 molecular gradient             ...        0 min,  0.006 sec (  8.449%)
 printout                       ...        0 min,  0.000 sec (  0.274%)

         :::::::::::::::::::::::::::::::::::::::::::::::::::::
         ::                     SUMMARY                     ::
         :::::::::::::::::::::::::::::::::::::::::::::::::::::
         :: total energy             -56.351003549375 Eh    ::
         :: gradient norm              8.463144399066 Eh/a0 ::
         :: HOMO-LUMO gap              0.396416762685 eV    ::
         ::.................................................::
         :: SCC energy               -64.606107417645 Eh    ::
         :: -> isotropic ES            0.020081268004 Eh    ::
         :: -> anisotropic ES         -0.002041349298 Eh    ::
         :: -> anisotropic XC          0.000730307944 Eh    ::
         :: -> dispersion             -0.050563927960 Eh    ::
         :: repulsion energy           8.256008018672 Eh    ::
         :: add. restraining           0.000000000000 Eh    ::
         :: total charge              -0.000000001152 e     ::
         :::::::::::::::::::::::::::::::::::::::::::::::::::::

      ----------------------------------------------------------- 
     |                   =====================                   |
     |                        A N C O P T                        |
     |                   =====================                   |
     |               Approximate Normal Coordinate               |
     |                Rational Function Optimizer                |
      ----------------------------------------------------------- 

          ...................................................
          :                      SETUP                      :
          :.................................................:
          :   optimization level            normal          :
          :   max. optcycles                   200          :
          :   ANC micro-cycles                  20          :
          :   degrees of freedom               105          :
          :.................................................:
          :   RF solver                   davidson          :
          :   write xtbopt.log                true          :
          :   linear?                        false          :
          :   energy convergence         0.5000000E-05 Eh   :
          :   grad. convergence          0.1000000E-02 Eh/α :
          :   maximium RF displ.         1.0000000          :
          :   Hlow (freq-cutoff)         0.1000000E-01      :
          :   Hmax (freq-cutoff)         5.0000000          :
          :   S6 in model hess.         20.0000000          :
          ...................................................

generating ANC from model Hessian ...
Using Lindh-Hessian (1995)
 Shifting diagonal of input Hessian by   8.551414434533760E-003
 Lowest  eigenvalues of input Hessian
    0.000000    0.000000    0.000000    0.000000    0.000000    0.000000
    0.010000    0.010313    0.011665    0.015798    0.018292    0.019317
    0.022142    0.026022    0.029532    0.050929    0.053443    0.053960
 Highest eigenvalues
   10.811889   11.234583   11.247749   19.007485   19.730588   19.801509
 

........................................................................
.............................. CYCLE    1 ..............................
........................................................................
   1    -64.6061074 -0.646061E+02  0.267E-04    0.40       0.0  T
   2    -64.6061074 -0.152501E-08  0.405E-04    0.40      40.6  T
   3    -64.6061074 -0.111410E-08  0.249E-04    0.40      66.0  T
     SCC iter.                  ...        0 min,  0.007 sec
     gradient                   ...        0 min,  0.005 sec
 * total energy  :   -56.3510036 Eh     change       -0.6856723E-08 Eh
   gradient norm :     8.4631691 Eh/α   predicted     0.0000000E+00 (-100.00%)
   displ. norm   :     0.7704359 α      lambda       -0.6494645E+01
   maximum displ.:     0.4130877 α      in ANC's #93, #78, #100, ...

........................................................................
.............................. CYCLE    2 ..............................
........................................................................
   1    -65.0661346 -0.650661E+02  0.221E+00    0.98       0.0  T
   2    -65.0832109 -0.170763E-01  0.128E+00    0.58       1.0  T
   3    -65.0813761  0.183481E-02  0.723E-01    0.69       1.0  T
   4    -65.0875100 -0.613390E-02  0.276E-01    0.60       1.0  T
   5    -65.0888747 -0.136473E-02  0.953E-02    0.59       1.0  T
   6    -65.0890047 -0.129967E-03  0.311E-02    0.61       1.0  T
   7    -65.0890147 -0.100001E-04  0.171E-02    0.60       1.0  T
   8    -65.0890189 -0.421439E-05  0.697E-03    0.61       2.4  T
   9    -65.0890192 -0.298829E-06  0.324E-03    0.61       5.1  T
  10    -65.0890192 -0.434440E-07  0.109E-03    0.61      15.1  T
  11    -65.0890192 -0.632843E-08  0.382E-04    0.61      43.0  T
  12    -65.0890192 -0.434241E-09  0.173E-04    0.61      95.1  T
     SCC iter.                  ...        0 min,  0.023 sec
     gradient                   ...        0 min,  0.005 sec
 * total energy  :   -60.8076687 Eh     change       -0.4456665E+01 Eh
   gradient norm :     3.7952514 Eh/α   predicted    -0.5174951E+01 (  16.12%)
   displ. norm   :     0.5592274 α      lambda       -0.2044133E+01
   maximum displ.:     0.2658424 α      in ANC's #87, #93, #73, ...

........................................................................
.............................. CYCLE    3 ..............................
........................................................................
   1    -65.3863720 -0.653864E+02  0.191E+00    1.27       0.0  T
   2    -65.3908855 -0.451348E-02  0.101E+00    1.18       1.0  T
   3    -65.3888779  0.200759E-02  0.431E-01    1.19       1.0  T
   4    -65.3916798 -0.280192E-02  0.204E-01    1.17       1.0  T
   5    -65.3921614 -0.481574E-03  0.844E-02    1.16       1.0  T
   6    -65.3923315 -0.170056E-03  0.140E-02    1.17       1.2  T
   7    -65.3923332 -0.168962E-05  0.752E-03    1.17       2.2  T
   8    -65.3923340 -0.873835E-06  0.299E-03    1.17       5.5  T
   9    -65.3923341 -0.553237E-07  0.142E-03    1.17      11.6  T
  10    -65.3923341 -0.190411E-07  0.415E-04    1.17      39.6  T
  11    -65.3923341 -0.483197E-09  0.139E-04    1.17     118.4  T
     SCC iter.                  ...        0 min,  0.023 sec
     gradient                   ...        0 min,  0.005 sec
 * total energy  :   -62.3887644 Eh     change       -0.1581096E+01 Eh
   gradient norm :     2.2212056 Eh/α   predicted    -0.1341703E+01 ( -15.14%)
   displ. norm   :     0.6333242 α      lambda       -0.1348872E+01
   maximum displ.:     0.4027549 α      in ANC's #87, #93, #86, ...

........................................................................
.............................. CYCLE    4 ..............................
........................................................................
   1    -65.6803358 -0.656803E+02  0.224E+00    1.92       0.0  T
   2    -65.6851416 -0.480570E-02  0.118E+00    1.83       1.0  T
   3    -65.6813888  0.375273E-02  0.528E-01    1.93       1.0  T
   4    -65.6868988 -0.550994E-02  0.228E-01    1.86       1.0  T
   5    -65.6871202 -0.221425E-03  0.932E-02    1.85       1.0  T
   6    -65.6873813 -0.261137E-03  0.160E-02    1.86       1.0  T
   7    -65.6873823 -0.101809E-05  0.889E-03    1.86       1.8  T
   8    -65.6873831 -0.732133E-06  0.399E-03    1.86       4.1  T
   9    -65.6873832 -0.150568E-06  0.204E-03    1.86       8.0  T
  10    -65.6873833 -0.405247E-07  0.621E-04    1.86      26.5  T
  11    -65.6873833 -0.285027E-08  0.331E-04    1.86      49.7  T
     SCC iter.                  ...        0 min,  0.021 sec
     gradient                   ...        0 min,  0.005 sec
 * total energy  :   -63.4627449 Eh     change       -0.1073980E+01 Eh
   gradient norm :     1.3575059 Eh/α   predicted    -0.9449587E+00 ( -12.01%)
   displ. norm   :     0.6666698 α      lambda       -0.8736041E+00
   maximum displ.:     0.4602000 α      in ANC's #87, #25, #86, ...

........................................................................
.............................. CYCLE    5 ..............................
........................................................................
   1    -65.8701299 -0.658701E+02  0.185E+00    2.46       0.0  T
   2    -65.8729651 -0.283515E-02  0.108E+00    2.49       1.0  T
   3    -65.8673691  0.559594E-02  0.513E-01    2.49       1.0  T
   4    -65.8746113 -0.724213E-02  0.170E-01    2.50       1.0  T
   5    -65.8746047  0.662413E-05  0.781E-02    2.50       1.0  T
   6    -65.8748141 -0.209432E-03  0.132E-02    2.50       1.2  T
   7    -65.8748143 -0.196160E-06  0.809E-03    2.50       2.0  T
   8    -65.8748149 -0.661768E-06  0.298E-03    2.50       5.5  T
   9    -65.8748150 -0.656273E-07  0.132E-03    2.50      12.4  T
  10    -65.8748150 -0.280107E-07  0.502E-04    2.50      32.8  T
  11    -65.8748150 -0.413073E-08  0.269E-04    2.50      61.1  T
     SCC iter.                  ...        0 min,  0.021 sec
     gradient                   ...        0 min,  0.005 sec
 * total energy  :   -64.1457630 Eh     change       -0.6830181E+00 Eh
   gradient norm :     0.8303614 Eh/α   predicted    -0.6309387E+00 (  -7.62%)
   displ. norm   :     0.6261191 α      lambda       -0.4800963E+00
   maximum displ.:     0.4207403 α      in ANC's #87, #10, #86, ...

........................................................................
.............................. CYCLE    6 ..............................
........................................................................
   1    -65.9309112 -0.659309E+02  0.132E+00    2.10       0.0  T
   2    -65.9328591 -0.194796E-02  0.829E-01    2.15       1.0  T
   3    -65.9285507  0.430845E-02  0.430E-01    2.13       1.0  T
   4    -65.9343014 -0.575065E-02  0.925E-02    2.15       1.0  T
   5    -65.9343203 -0.189403E-04  0.578E-02    2.15       1.0  T
   6    -65.9344110 -0.907032E-04  0.125E-02    2.15       1.3  T
   7    -65.9344115 -0.502722E-06  0.748E-03    2.15       2.2  T
   8    -65.9344124 -0.871872E-06  0.323E-03    2.15       5.1  T
   9    -65.9344124 -0.668419E-07  0.119E-03    2.15      13.8  T
  10    -65.9344125 -0.325870E-07  0.356E-04    2.15      46.2  T
  11    -65.9344125 -0.200058E-08  0.147E-04    2.15     111.5  T
     SCC iter.                  ...        0 min,  0.021 sec
     gradient                   ...        0 min,  0.005 sec
 * total energy  :   -64.5104260 Eh     change       -0.3646630E+00 Eh
   gradient norm :     0.5216796 Eh/α   predicted    -0.3341531E+00 (  -8.37%)
   displ. norm   :     0.5912872 α      lambda       -0.2442866E+00
   maximum displ.:     0.3341925 α      in ANC's #87, #10, #55, ...

........................................................................
.............................. CYCLE    7 ..............................
........................................................................
   1    -65.9280713 -0.659281E+02  0.915E-01    1.90       0.0  T
   2    -65.9292097 -0.113847E-02  0.596E-01    1.93       1.0  T
   3    -65.9269410  0.226878E-02  0.323E-01    1.91       1.0  T
   4    -65.9302936 -0.335268E-02  0.613E-02    1.92       1.0  T
   5    -65.9303195 -0.258973E-04  0.395E-02    1.93       1.0  T
   6    -65.9303549 -0.353882E-04  0.101E-02    1.92       1.6  T
   7    -65.9303553 -0.361051E-06  0.426E-03    1.92       3.9  T
   8    -65.9303554 -0.110136E-06  0.268E-03    1.92       6.1  T
   9    -65.9303555 -0.901895E-07  0.111E-03    1.92      14.8  T
  10    -65.9303555 -0.342512E-07  0.335E-04    1.92      49.1  T
  11    -65.9303555 -0.967589E-09  0.163E-04    1.92     100.9  T
     SCC iter.                  ...        0 min,  0.021 sec
     gradient                   ...        0 min,  0.004 sec
 * total energy  :   -64.6971225 Eh     change       -0.1866965E+00 Eh
   gradient norm :     0.3750728 Eh/α   predicted    -0.1648472E+00 ( -11.70%)
   displ. norm   :     0.6186108 α      lambda       -0.1414689E+00
   maximum displ.:     0.3566629 α      in ANC's #10, #6, #87, ...

........................................................................
.............................. CYCLE    8 ..............................
........................................................................
   1    -65.9165537 -0.659166E+02  0.661E-01    1.76       0.0  T
   2    -65.9170370 -0.483324E-03  0.436E-01    1.78       1.0  T
   3    -65.9154325  0.160449E-02  0.259E-01    1.76       1.0  T
   4    -65.9177614 -0.232890E-02  0.532E-02    1.77       1.0  T
   5    -65.9178015 -0.401046E-04  0.315E-02    1.77       1.0  T
   6    -65.9178246 -0.230801E-04  0.891E-03    1.77       1.8  T
   7    -65.9178252 -0.612020E-06  0.495E-03    1.77       3.3  T
   8    -65.9178258 -0.635484E-06  0.214E-03    1.77       7.7  T
   9    -65.9178259 -0.147776E-07  0.858E-04    1.77      19.2  T
  10    -65.9178259 -0.118912E-07  0.333E-04    1.77      49.4  T
     SCC iter.                  ...        0 min,  0.019 sec
     gradient                   ...        0 min,  0.005 sec
 * total energy  :   -64.8086574 Eh     change       -0.1115349E+00 Eh
   gradient norm :     0.3053089 Eh/α   predicted    -0.9780311E-01 ( -12.31%)
   displ. norm   :     0.6709539 α      lambda       -0.9815557E-01
   maximum displ.:     0.3978607 α      in ANC's #10, #6, #55, ...

........................................................................
.............................. CYCLE    9 ..............................
........................................................................
   1    -65.9171820 -0.659172E+02  0.501E-01    1.66       0.0  T
   2    -65.9173136 -0.131554E-03  0.335E-01    1.67       1.0  T
   3    -65.9160209  0.129264E-02  0.225E-01    1.66       1.0  T
   4    -65.9178349 -0.181390E-02  0.425E-02    1.66       1.0  T
   5    -65.9178627 -0.278358E-04  0.238E-02    1.66       1.0  T
   6    -65.9178732 -0.105591E-04  0.649E-03    1.66       2.5  T
   7    -65.9178743 -0.104523E-05  0.303E-03    1.66       5.4  T
   8    -65.9178744 -0.815291E-07  0.161E-03    1.66      10.2  T
   9    -65.9178744 -0.274094E-07  0.690E-04    1.66      23.8  T
  10    -65.9178744 -0.622035E-08  0.225E-04    1.66      73.1  T
     SCC iter.                  ...        0 min,  0.020 sec
     gradient                   ...        0 min,  0.005 sec
 * total energy  :   -64.8895343 Eh     change       -0.8087690E-01 Eh
   gradient norm :     0.2584154 Eh/α   predicted    -0.7117164E-01 ( -12.00%)
   displ. norm   :     0.7032448 α      lambda       -0.8001269E-01
   maximum displ.:     0.4441726 α      in ANC's #6, #10, #55, ...

........................................................................
.............................. CYCLE   10 ..............................
........................................................................
   1    -65.9332676 -0.659333E+02  0.455E-01    1.61       0.0  T
   2    -65.9333904 -0.122774E-03  0.287E-01    1.60       1.0  T
   3    -65.9322772  0.111319E-02  0.200E-01    1.59       1.0  T
   4    -65.9336992 -0.142198E-02  0.393E-02    1.60       1.0  T
   5    -65.9337080 -0.881523E-05  0.209E-02    1.60       1.0  T
   6    -65.9337148 -0.678249E-05  0.846E-03    1.60       1.9  T
   7    -65.9337164 -0.160723E-05  0.359E-03    1.60       4.6  T
   8    -65.9337165 -0.151997E-06  0.216E-03    1.60       7.6  T
   9    -65.9337166 -0.409863E-07  0.845E-04    1.60      19.4  T
  10    -65.9337166 -0.175978E-07  0.243E-04    1.60      67.5  T
     SCC iter.                  ...        0 min,  0.019 sec
     gradient                   ...        0 min,  0.004 sec
 * total energy  :   -64.9566118 Eh     change       -0.6707752E-01 Eh
   gradient norm :     0.2078472 Eh/α   predicted    -0.5979163E-01 ( -10.86%)
   displ. norm   :     0.7003649 α      lambda       -0.6705208E-01
   maximum displ.:     0.4735190 α      in ANC's #6, #10, #25, ...

........................................................................
.............................. CYCLE   11 ..............................
........................................................................
   1    -65.9646676 -0.659647E+02  0.496E-01    1.60       0.0  T
   2    -65.9650549 -0.387344E-03  0.271E-01    1.59       1.0  T
   3    -65.9646134  0.441541E-03  0.149E-01    1.58       1.0  T
   4    -65.9651243 -0.510970E-03  0.622E-02    1.59       1.0  T
   5    -65.9651939 -0.695558E-04  0.195E-02    1.58       1.0  T
   6    -65.9651945 -0.607395E-06  0.100E-02    1.59       1.6  T
   7    -65.9651970 -0.247811E-05  0.409E-03    1.58       4.0  T
   8    -65.9651969  0.396368E-07  0.262E-03    1.58       6.3  T
   9    -65.9651971 -0.152384E-06  0.856E-04    1.58      19.2  T
  10    -65.9651971 -0.184543E-07  0.252E-04    1.58      65.2  T
     SCC iter.                  ...        0 min,  0.019 sec
     gradient                   ...        0 min,  0.005 sec
 * total energy  :   -65.0116731 Eh     change       -0.5506133E-01 Eh
   gradient norm :     0.1484912 Eh/α   predicted    -0.4997095E-01 (  -9.24%)
   displ. norm   :     0.6803315 α      lambda       -0.5004555E-01
   maximum displ.:     0.5050020 α      in ANC's #6, #10, #25, ...

........................................................................
.............................. CYCLE   12 ..............................
........................................................................
   1    -66.0119771 -0.660120E+02  0.517E-01    1.65       0.0  T
   2    -66.0125137 -0.536537E-03  0.258E-01    1.63       1.0  T
   3    -66.0123359  0.177780E-03  0.123E-01    1.63       1.0  T
   4    -66.0125663 -0.230422E-03  0.563E-02    1.63       1.0  T
   5    -66.0126218 -0.554577E-04  0.192E-02    1.63       1.0  T
   6    -66.0126214  0.365423E-06  0.116E-02    1.63       1.4  T
   7    -66.0126250 -0.362716E-05  0.398E-03    1.63       4.1  T
   8    -66.0126250  0.175220E-07  0.184E-03    1.63       8.9  T
   9    -66.0126251 -0.612825E-07  0.512E-04    1.63      32.1  T
  10    -66.0126251 -0.128965E-08  0.310E-04    1.63      53.1  T
     SCC iter.                  ...        0 min,  0.019 sec
     gradient                   ...        0 min,  0.005 sec
 * total energy  :   -65.0510942 Eh     change       -0.3942106E-01 Eh
   gradient norm :     0.1037318 Eh/α   predicted    -0.3660463E-01 (  -7.14%)
   displ. norm   :     0.6744621 α      lambda       -0.3175947E-01
   maximum displ.:     0.5571362 α      in ANC's #6, #25, #5, ...

........................................................................
.............................. CYCLE   13 ..............................
........................................................................
   1    -66.0658320 -0.660658E+02  0.419E-01    1.69       0.0  T
   2    -66.0660761 -0.244086E-03  0.210E-01    1.67       1.0  T
   3    -66.0659478  0.128267E-03  0.931E-02    1.68       1.0  T
   4    -66.0661194 -0.171616E-03  0.385E-02    1.67       1.0  T
   5    -66.0661375 -0.180739E-04  0.141E-02    1.67       1.2  T
   6    -66.0661376 -0.683771E-07  0.843E-03    1.67       2.0  T
   7    -66.0661396 -0.201086E-05  0.281E-03    1.67       5.9  T
   8    -66.0661395  0.180242E-07  0.113E-03    1.67      14.5  T
   9    -66.0661396 -0.255370E-07  0.415E-04    1.67      39.6  T
  10    -66.0661396 -0.274429E-08  0.177E-04    1.67      93.0  T
     SCC iter.                  ...        0 min,  0.019 sec
     gradient                   ...        0 min,  0.005 sec
 * total energy  :   -65.0764694 Eh     change       -0.2537525E-01 Eh
   gradient norm :     0.0966359 Eh/α   predicted    -0.2310348E-01 (  -8.95%)
   displ. norm   :     0.6934505 α      lambda       -0.2304023E-01
   maximum displ.:     0.5943421 α      in ANC's #6, #25, #5, ...

........................................................................
.............................. CYCLE   14 ..............................
........................................................................
   1    -66.1120293 -0.661120E+02  0.321E-01    1.68       0.0  T
   2    -66.1120842 -0.548952E-04  0.173E-01    1.68       1.0  T
   3    -66.1119265  0.157764E-03  0.816E-02    1.68       1.0  T
   4    -66.1121177 -0.191181E-03  0.264E-02    1.68       1.0  T
   5    -66.1121213 -0.366401E-05  0.954E-03    1.68       1.7  T
   6    -66.1121228 -0.153389E-05  0.426E-03    1.68       3.9  T
   7    -66.1121232 -0.370543E-06  0.224E-03    1.68       7.4  T
   8    -66.1121232 -0.257440E-07  0.102E-03    1.68      16.1  T
   9    -66.1121233 -0.110741E-07  0.353E-04    1.68      46.6  T
  10    -66.1121233 -0.279628E-08  0.141E-04    1.68     116.8  T
     SCC iter.                  ...        0 min,  0.019 sec
     gradient                   ...        0 min,  0.005 sec
 * total energy  :   -65.0957766 Eh     change       -0.1930715E-01 Eh
   gradient norm :     0.0870862 Eh/α   predicted    -0.1705985E-01 ( -11.64%)
   displ. norm   :     0.7121423 α      lambda       -0.1932676E-01
   maximum displ.:     0.6107929 α      in ANC's #6, #25, #27, ...

........................................................................
.............................. CYCLE   15 ..............................
........................................................................
   1    -66.1442590 -0.661443E+02  0.285E-01    1.63       0.0  T
   2    -66.1443362 -0.771974E-04  0.163E-01    1.64       1.0  T
   3    -66.1441687  0.167537E-03  0.824E-02    1.64       1.0  T
   4    -66.1443803 -0.211581E-03  0.258E-02    1.64       1.0  T
   5    -66.1443872 -0.695638E-05  0.123E-02    1.64       1.3  T
   6    -66.1443905 -0.327383E-05  0.422E-03    1.64       3.9  T
   7    -66.1443908 -0.335152E-06  0.202E-03    1.64       8.1  T
   8    -66.1443908 -0.198519E-07  0.104E-03    1.64      15.7  T
   9    -66.1443908 -0.866584E-08  0.440E-04    1.64      37.3  T
  10    -66.1443909 -0.501730E-08  0.147E-04    1.64     111.5  T
     SCC iter.                  ...        0 min,  0.019 sec
     gradient                   ...        0 min,  0.004 sec
 * total energy  :   -65.1116572 Eh     change       -0.1588056E-01 Eh
   gradient norm :     0.0574335 Eh/α   predicted    -0.1456419E-01 (  -8.29%)
   displ. norm   :     0.6910325 α      lambda       -0.1315453E-01
   maximum displ.:     0.6004837 α      in ANC's #6, #5, #27, ...

........................................................................
.............................. CYCLE   16 ..............................
........................................................................
   1    -66.1572273 -0.661572E+02  0.250E-01    1.58       0.0  T
   2    -66.1573398 -0.112526E-03  0.146E-01    1.60       1.0  T
   3    -66.1572337  0.106156E-03  0.748E-02    1.59       1.0  T
   4    -66.1573858 -0.152063E-03  0.265E-02    1.60       1.0  T
   5    -66.1573960 -0.102524E-04  0.124E-02    1.60       1.3  T
   6    -66.1573994 -0.343667E-05  0.425E-03    1.60       3.9  T
   7    -66.1573997 -0.261785E-06  0.179E-03    1.60       9.2  T
   8    -66.1573997 -0.182920E-07  0.104E-03    1.60      15.8  T
   9    -66.1573997 -0.607108E-08  0.466E-04    1.60      35.3  T
  10    -66.1573997 -0.574299E-08  0.148E-04    1.60     111.3  T
     SCC iter.                  ...        0 min,  0.019 sec
     gradient                   ...        0 min,  0.005 sec
 * total energy  :   -65.1218840 Eh     change       -0.1022681E-01 Eh
   gradient norm :     0.0442855 Eh/α   predicted    -0.9718112E-02 (  -4.97%)
   displ. norm   :     0.6352043 α      lambda       -0.7328248E-02
   maximum displ.:     0.5629138 α      in ANC's #6, #1, #5, ...

........................................................................
.............................. CYCLE   17 ..............................
........................................................................
   1    -66.1572416 -0.661572E+02  0.194E-01    1.58       0.0  T
   2    -66.1572981 -0.564885E-04  0.114E-01    1.59       1.0  T
   3    -66.1572157  0.823747E-04  0.624E-02    1.59       1.0  T
   4    -66.1573309 -0.115184E-03  0.206E-02    1.59       1.0  T
   5    -66.1573357 -0.474266E-05  0.991E-03    1.59       1.7  T
   6    -66.1573377 -0.207732E-05  0.321E-03    1.59       5.1  T
   7    -66.1573379 -0.138835E-06  0.144E-03    1.59      11.4  T
   8    -66.1573379 -0.780616E-08  0.871E-04    1.59      18.9  T
   9    -66.1573379 -0.624577E-08  0.382E-04    1.59      43.0  T
     SCC iter.                  ...        0 min,  0.018 sec
     gradient                   ...        0 min,  0.005 sec
 * total energy  :   -65.1276261 Eh     change       -0.5742097E-02 Eh
   gradient norm :     0.0564116 Eh/α   predicted    -0.5142543E-02 ( -10.44%)
   displ. norm   :     0.5962149 α      lambda       -0.5027533E-02
   maximum displ.:     0.5328315 α      in ANC's #6, #1, #5, ...

........................................................................
.............................. CYCLE   18 ..............................
........................................................................
   1    -66.1517290 -0.661517E+02  0.152E-01    1.60       0.0  T
   2    -66.1517509 -0.219737E-04  0.880E-02    1.60       1.0  T
   3    -66.1516864  0.645343E-04  0.514E-02    1.60       1.0  T
   4    -66.1517701 -0.837226E-04  0.147E-02    1.60       1.1  T
   5    -66.1517715 -0.141044E-05  0.667E-03    1.60       2.5  T
   6    -66.1517724 -0.895225E-06  0.234E-03    1.60       7.0  T
   7    -66.1517725 -0.831819E-07  0.113E-03    1.60      14.6  T
   8    -66.1517725 -0.142897E-08  0.698E-04    1.60      23.6  T
   9    -66.1517725 -0.609063E-08  0.283E-04    1.60      58.0  T
     SCC iter.                  ...        0 min,  0.018 sec
     gradient                   ...        0 min,  0.005 sec
 * total energy  :   -65.1316989 Eh     change       -0.4072847E-02 Eh
   gradient norm :     0.0623243 Eh/α   predicted    -0.3407343E-02 ( -16.34%)
   displ. norm   :     0.5837062 α      lambda       -0.4459895E-02
   maximum displ.:     0.5200476 α      in ANC's #6, #1, #5, ...

........................................................................
.............................. CYCLE   19 ..............................
........................................................................
   1    -66.1439949 -0.661440E+02  0.127E-01    1.63       0.0  T
   2    -66.1440042 -0.927310E-05  0.706E-02    1.63       1.0  T
   3    -66.1439637  0.405004E-04  0.401E-02    1.63       1.0  T
   4    -66.1440131 -0.493721E-04  0.109E-02    1.63       1.5  T
   5    -66.1440138 -0.671407E-06  0.299E-03    1.63       5.5  T
   6    -66.1440138 -0.513579E-07  0.157E-03    1.63      10.4  T
   7    -66.1440139 -0.443925E-07  0.846E-04    1.63      19.4  T
   8    -66.1440139 -0.815987E-09  0.442E-04    1.63      37.2  T
     SCC iter.                  ...        0 min,  0.016 sec
     gradient                   ...        0 min,  0.005 sec
 * total energy  :   -65.1353445 Eh     change       -0.3645587E-02 Eh
   gradient norm :     0.0573358 Eh/α   predicted    -0.2989734E-02 ( -17.99%)
   displ. norm   :     0.5520648 α      lambda       -0.4153812E-02
   maximum displ.:     0.4822895 α      in ANC's #6, #1, #5, ...

........................................................................
.............................. CYCLE   20 ..............................
........................................................................
   1    -66.1365270 -0.661365E+02  0.111E-01    1.65       0.0  T
   2    -66.1365363 -0.936940E-05  0.590E-02    1.66       1.0  T
   3    -66.1365205  0.158101E-04  0.274E-02    1.66       1.0  T
   4    -66.1365406 -0.201005E-04  0.935E-03    1.66       1.8  T
   5    -66.1365413 -0.687312E-06  0.395E-03    1.66       4.2  T
   6    -66.1365416 -0.317654E-06  0.131E-03    1.66      12.6  T
   7    -66.1365417 -0.392924E-07  0.621E-04    1.66      26.5  T
   8    -66.1365417 -0.108501E-08  0.337E-04    1.66      48.8  T
     SCC iter.                  ...        0 min,  0.016 sec
     gradient                   ...        0 min,  0.004 sec
 * total energy  :   -65.1386337 Eh     change       -0.3289185E-02 Eh
   gradient norm :     0.0439439 Eh/α   predicted    -0.2709913E-02 ( -17.61%)
   displ. norm   :     0.4859137 α      lambda       -0.3256046E-02
   maximum displ.:     0.4075201 α      in ANC's #6, #1, #5, ...
 * RMSD in coord.:     1.5098399 α      energy gain  -0.8787630E+01 Eh

generating ANC from model Hessian ...
Using Lindh-Hessian (1995)
 Shifting diagonal of input Hessian by   9.833722072516309E-003
 Lowest  eigenvalues of input Hessian
    0.000000    0.000000    0.000000    0.000000    0.000000    0.000000
    0.010000    0.010306    0.010334    0.011089    0.011559    0.012000
    0.013662    0.013760    0.014882    0.015586    0.016628    0.021820
 Highest eigenvalues
    1.910799    1.911904    1.971271    1.990423    2.014135    2.023033
 

........................................................................
.............................. CYCLE   21 ..............................
........................................................................
   1    -66.1310489 -0.661310E+02  0.103E-01    1.66       0.0  T
   2    -66.1310614 -0.124687E-04  0.561E-02    1.66       1.0  T
   3    -66.1310438  0.175425E-04  0.292E-02    1.66       1.0  T
   4    -66.1310685 -0.247308E-04  0.851E-03    1.66       1.9  T
   5    -66.1310693 -0.788838E-06  0.464E-03    1.66       3.5  T
   6    -66.1310699 -0.526866E-06  0.145E-03    1.66      11.3  T
   7    -66.1310699 -0.580933E-07  0.466E-04    1.66      35.3  T
   8    -66.1310699 -0.672387E-09  0.288E-04    1.66      57.0  T
     SCC iter.                  ...        0 min,  0.016 sec
     gradient                   ...        0 min,  0.005 sec
 * total energy  :   -65.1410709 Eh     change       -0.2437223E-02 Eh
   gradient norm :     0.0310085 Eh/α   predicted     0.0000000E+00 (-100.00%)
   displ. norm   :     0.2263981 α      lambda       -0.2833237E-02
   maximum displ.:     0.1444300 α      in ANC's #13, #7, #8, ...

........................................................................
.............................. CYCLE   22 ..............................
........................................................................
   1    -66.1385860 -0.661386E+02  0.117E-01    1.64       0.0  T
   2    -66.1385925 -0.649210E-05  0.706E-02    1.64       1.0  T
   3    -66.1385330  0.595777E-04  0.446E-02    1.64       1.0  T
   4    -66.1386060 -0.730162E-04  0.995E-03    1.64       1.7  T
   5    -66.1386061 -0.147043E-06  0.549E-03    1.64       3.0  T
   6    -66.1386067 -0.615428E-06  0.188E-03    1.64       8.7  T
   7    -66.1386068 -0.380409E-07  0.120E-03    1.64      13.7  T
   8    -66.1386068 -0.471742E-08  0.475E-04    1.64      34.6  T
   9    -66.1386068 -0.352600E-08  0.213E-04    1.64      77.3  T
     SCC iter.                  ...        0 min,  0.018 sec
     gradient                   ...        0 min,  0.005 sec
 * total energy  :   -65.1432181 Eh     change       -0.2147246E-02 Eh
   gradient norm :     0.0147304 Eh/α   predicted    -0.1489245E-02 ( -30.64%)
   displ. norm   :     0.3439487 α      lambda       -0.1922355E-02
   maximum displ.:     0.2137253 α      in ANC's #7, #13, #8, ...

........................................................................
.............................. CYCLE   23 ..............................
........................................................................
   1    -66.1430841 -0.661431E+02  0.119E-01    1.61       0.0  T
   2    -66.1430918 -0.769828E-05  0.697E-02    1.61       1.0  T
   3    -66.1430421  0.496896E-04  0.410E-02    1.61       1.0  T
   4    -66.1431014 -0.592838E-04  0.102E-02    1.61       1.6  T
   5    -66.1431021 -0.712673E-06  0.502E-03    1.61       3.3  T
   6    -66.1431025 -0.398427E-06  0.227E-03    1.61       7.2  T
   7    -66.1431026 -0.473218E-07  0.146E-03    1.61      11.3  T
   8    -66.1431026 -0.155272E-07  0.568E-04    1.61      29.0  T
   9    -66.1431026 -0.265814E-08  0.266E-04    1.61      61.9  T
     SCC iter.                  ...        0 min,  0.018 sec
     gradient                   ...        0 min,  0.005 sec
 * total energy  :   -65.1444110 Eh     change       -0.1192817E-02 Eh
   gradient norm :     0.0068893 Eh/α   predicted    -0.1074978E-02 (  -9.88%)
   displ. norm   :     0.2225399 α      lambda       -0.4209650E-03
   maximum displ.:     0.1602352 α      in ANC's #7, #8, #13, ...

........................................................................
.............................. CYCLE   24 ..............................
........................................................................
   1    -66.1431853 -0.661432E+02  0.479E-02    1.60       0.0  T
   2    -66.1431864 -0.102364E-05  0.263E-02    1.60       1.0  T
   3    -66.1431855  0.874222E-06  0.738E-03    1.60       2.2  T
   4    -66.1431865 -0.965426E-06  0.357E-03    1.60       4.6  T
   5    -66.1431867 -0.194900E-06  0.151E-03    1.60      10.9  T
   6    -66.1431867 -0.337088E-07  0.714E-04    1.60      23.0  T
   7    -66.1431867 -0.305873E-08  0.445E-04    1.60      37.0  T
     SCC iter.                  ...        0 min,  0.014 sec
     gradient                   ...        0 min,  0.004 sec
 * total energy  :   -65.1447253 Eh     change       -0.3143815E-03 Eh
   gradient norm :     0.0067823 Eh/α   predicted    -0.2209111E-03 ( -29.73%)
   displ. norm   :     0.2408553 α      lambda       -0.3293674E-03
   maximum displ.:     0.1741237 α      in ANC's #7, #8, #13, ...

........................................................................
.............................. CYCLE   25 ..............................
........................................................................
   1    -66.1425409 -0.661425E+02  0.494E-02    1.61       0.0  T
   2    -66.1425414 -0.430227E-06  0.287E-02    1.61       1.0  T
   3    -66.1425322  0.920848E-05  0.180E-02    1.61       1.0  T
   4    -66.1425430 -0.108003E-04  0.310E-03    1.61       5.3  T
   5    -66.1425430  0.114523E-07  0.134E-03    1.61      12.3  T
   6    -66.1425430 -0.399738E-07  0.535E-04    1.61      30.7  T
   7    -66.1425430 -0.312163E-08  0.310E-04    1.61      53.1  T
     SCC iter.                  ...        0 min,  0.016 sec
     gradient                   ...        0 min,  0.005 sec
 * total energy  :   -65.1449568 Eh     change       -0.2314856E-03 Eh
   gradient norm :     0.0049140 Eh/α   predicted    -0.1742383E-03 ( -24.73%)
   displ. norm   :     0.1544998 α      lambda       -0.1306772E-03
   maximum displ.:     0.1065353 α      in ANC's #7, #8, #3, ...

........................................................................
.............................. CYCLE   26 ..............................
........................................................................
   1    -66.1421741 -0.661422E+02  0.356E-02    1.61       0.0  T
   2    -66.1421743 -0.243764E-06  0.214E-02    1.61       1.0  T
   3    -66.1421688  0.550418E-05  0.142E-02    1.61       1.2  T
   4    -66.1421755 -0.673429E-05  0.240E-03    1.61       6.9  T
   5    -66.1421755  0.521322E-08  0.990E-04    1.61      16.6  T
   6    -66.1421756 -0.236144E-07  0.451E-04    1.61      36.4  T
     SCC iter.                  ...        0 min,  0.013 sec
     gradient                   ...        0 min,  0.005 sec
 * total energy  :   -65.1450446 Eh     change       -0.8772455E-04 Eh
   gradient norm :     0.0033839 Eh/α   predicted    -0.6691067E-04 ( -23.73%)
   displ. norm   :     0.0887691 α      lambda       -0.4113065E-04
   maximum displ.:     0.0527951 α      in ANC's #7, #3, #8, ...

........................................................................
.............................. CYCLE   27 ..............................
........................................................................
   1    -66.1420353 -0.661420E+02  0.234E-02    1.62       0.0  T
   2    -66.1420355 -0.239698E-06  0.135E-02    1.62       1.2  T
   3    -66.1420341  0.138553E-05  0.716E-03    1.62       2.3  T
   4    -66.1420358 -0.162477E-05  0.183E-03    1.62       9.0  T
   5    -66.1420358 -0.292018E-07  0.774E-04    1.62      21.2  T
   6    -66.1420358 -0.112499E-07  0.336E-04    1.62      49.0  T
     SCC iter.                  ...        0 min,  0.012 sec
     gradient                   ...        0 min,  0.005 sec
 * total energy  :   -65.1450723 Eh     change       -0.2774813E-04 Eh
   gradient norm :     0.0020769 Eh/α   predicted    -0.2072757E-04 ( -25.30%)
   displ. norm   :     0.0524039 α      lambda       -0.1717870E-04
   maximum displ.:     0.0403597 α      in ANC's #3, #9, #2, ...

........................................................................
.............................. CYCLE   28 ..............................
........................................................................
   1    -66.1420636 -0.661421E+02  0.151E-02    1.62       0.0  T
   2    -66.1420637 -0.121419E-06  0.847E-03    1.62       1.9  T
   3    -66.1420636  0.117249E-06  0.240E-03    1.62       6.9  T
   4    -66.1420637 -0.142526E-06  0.985E-04    1.62      16.7  T
   5    -66.1420637 -0.993515E-08  0.420E-04    1.62      39.1  T
     SCC iter.                  ...        0 min,  0.010 sec
     gradient                   ...        0 min,  0.005 sec
 * total energy  :   -65.1450856 Eh     change       -0.1325126E-04 Eh
   gradient norm :     0.0010750 Eh/α   predicted    -0.8613917E-05 ( -35.00%)
   displ. norm   :     0.0785304 α      lambda       -0.1434748E-04
   maximum displ.:     0.0599142 α      in ANC's #3, #2, #9, ...

........................................................................
.............................. CYCLE   29 ..............................
........................................................................
   1    -66.1421759 -0.661422E+02  0.204E-02    1.61       0.0  T
   2    -66.1421761 -0.148865E-06  0.116E-02    1.62       1.4  T
   3    -66.1421755  0.584425E-06  0.451E-03    1.62       3.6  T
   4    -66.1421761 -0.661444E-06  0.126E-03    1.62      13.1  T
   5    -66.1421762 -0.147096E-07  0.626E-04    1.62      26.3  T
   6    -66.1421762 -0.808636E-08  0.163E-04    1.62     100.6  T
     SCC iter.                  ...        0 min,  0.013 sec
     gradient                   ...        0 min,  0.005 sec
 * total energy  :   -65.1451012 Eh     change       -0.1568392E-04 Eh
   gradient norm :     0.0018059 Eh/α   predicted    -0.7193525E-05 ( -54.13%)
   displ. norm   :     0.0686483 α      lambda       -0.1033006E-04
   maximum displ.:     0.0500201 α      in ANC's #3, #2, #9, ...

........................................................................
.............................. CYCLE   30 ..............................
........................................................................
   1    -66.1421627 -0.661422E+02  0.147E-02    1.61       0.0  T
   2    -66.1421627 -0.326737E-07  0.837E-03    1.61       2.0  T
   3    -66.1421623  0.384365E-06  0.352E-03    1.61       4.7  T
   4    -66.1421628 -0.429930E-06  0.827E-04    1.61      19.9  T
   5    -66.1421628 -0.314830E-08  0.239E-04    1.61      68.7  T
     SCC iter.                  ...        0 min,  0.010 sec
     gradient                   ...        0 min,  0.004 sec
 * total energy  :   -65.1451147 Eh     change       -0.1346602E-04 Eh
   gradient norm :     0.0019165 Eh/α   predicted    -0.5177549E-05 ( -61.55%)
   displ. norm   :     0.0884153 α      lambda       -0.1270179E-04
   maximum displ.:     0.0635967 α      in ANC's #3, #2, #9, ...

........................................................................
.............................. CYCLE   31 ..............................
........................................................................
   1    -66.1422993 -0.661423E+02  0.171E-02    1.61       0.0  T
   2    -66.1422994 -0.725473E-07  0.969E-03    1.61       1.7  T
   3    -66.1422991  0.241312E-06  0.288E-03    1.61       5.7  T
   4    -66.1422994 -0.261085E-06  0.113E-03    1.61      14.5  T
   5    -66.1422994 -0.171896E-07  0.431E-04    1.61      38.1  T
   6    -66.1422994 -0.547087E-08  0.143E-04    1.61     114.6  T
     SCC iter.                  ...        0 min,  0.012 sec
     gradient                   ...        0 min,  0.005 sec
 * total energy  :   -65.1451307 Eh     change       -0.1595343E-04 Eh
   gradient norm :     0.0011462 Eh/α   predicted    -0.6377310E-05 ( -60.03%)
   displ. norm   :     0.1013373 α      lambda       -0.1107377E-04
   maximum displ.:     0.0742371 α      in ANC's #3, #2, #1, ...

........................................................................
.............................. CYCLE   32 ..............................
........................................................................
   1    -66.1422676 -0.661423E+02  0.171E-02    1.61       0.0  T
   2    -66.1422676 -0.692843E-07  0.968E-03    1.61       1.7  T
   3    -66.1422674  0.249056E-06  0.283E-03    1.61       5.8  T
   4    -66.1422676 -0.266931E-06  0.115E-03    1.61      14.3  T
   5    -66.1422677 -0.200288E-07  0.399E-04    1.61      41.2  T
   6    -66.1422677 -0.475011E-08  0.139E-04    1.61     118.3  T
     SCC iter.                  ...        0 min,  0.012 sec
     gradient                   ...        0 min,  0.005 sec
 * total energy  :   -65.1451446 Eh     change       -0.1391286E-04 Eh
   gradient norm :     0.0006055 Eh/α   predicted    -0.5564576E-05 ( -60.00%)
   displ. norm   :     0.0982132 α      lambda       -0.8664133E-05
   maximum displ.:     0.0716355 α      in ANC's #3, #2, #1, ...

........................................................................
.............................. CYCLE   33 ..............................
........................................................................
   1    -66.1424049 -0.661424E+02  0.135E-02    1.62       0.0  T
   2    -66.1424049 -0.379646E-07  0.771E-03    1.62       2.1  T
   3    -66.1424047  0.273143E-06  0.288E-03    1.62       5.7  T
   4    -66.1424050 -0.301652E-06  0.888E-04    1.62      18.5  T
   5    -66.1424050 -0.100344E-07  0.277E-04    1.62      59.3  T
     SCC iter.                  ...        0 min,  0.010 sec
     gradient                   ...        0 min,  0.005 sec
 * total energy  :   -65.1451560 Eh     change       -0.1139468E-04 Eh
   gradient norm :     0.0007984 Eh/α   predicted    -0.4352742E-05 ( -61.80%)
   displ. norm   :     0.1099202 α      lambda       -0.8946899E-05
   maximum displ.:     0.0791259 α      in ANC's #3, #2, #1, ...

........................................................................
.............................. CYCLE   34 ..............................
........................................................................
   1    -66.1423754 -0.661424E+02  0.142E-02    1.62       0.0  T
   2    -66.1423755 -0.340205E-07  0.808E-03    1.62       2.0  T
   3    -66.1423752  0.294885E-06  0.297E-03    1.62       5.5  T
   4    -66.1423755 -0.325279E-06  0.916E-04    1.62      18.0  T
   5    -66.1423755 -0.106615E-07  0.257E-04    1.62      63.9  T
     SCC iter.                  ...        0 min,  0.010 sec
     gradient                   ...        0 min,  0.005 sec
 * total energy  :   -65.1451680 Eh     change       -0.1198725E-04 Eh
   gradient norm :     0.0009518 Eh/α   predicted    -0.4499028E-05 ( -62.47%)
   displ. norm   :     0.1509055 α      lambda       -0.1119558E-04
   maximum displ.:     0.1065784 α      in ANC's #3, #2, #1, ...

........................................................................
.............................. CYCLE   35 ..............................
........................................................................
   1    -66.1424342 -0.661424E+02  0.211E-02    1.62       0.0  T
   2    -66.1424342 -0.654037E-07  0.119E-02    1.62       1.4  T
   3    -66.1424338  0.438669E-06  0.363E-03    1.62       4.5  T
   4    -66.1424343 -0.473978E-06  0.141E-03    1.62      11.6  T
   5    -66.1424343 -0.285615E-07  0.349E-04    1.62      47.1  T
   6    -66.1424343 -0.310158E-08  0.126E-04    1.62     130.7  T
     SCC iter.                  ...        0 min,  0.012 sec
     gradient                   ...        0 min,  0.005 sec
 * total energy  :   -65.1451821 Eh     change       -0.1418874E-04 Eh
   gradient norm :     0.0008409 Eh/α   predicted    -0.5655345E-05 ( -60.14%)
   displ. norm   :     0.1854792 α      lambda       -0.1049134E-04
   maximum displ.:     0.1300420 α      in ANC's #3, #2, #1, ...

........................................................................
.............................. CYCLE   36 ..............................
........................................................................
   1    -66.1422401 -0.661422E+02  0.285E-02    1.62       0.0  T
   2    -66.1422402 -0.110616E-06  0.161E-02    1.62       1.0  T
   3    -66.1422396  0.537988E-06  0.405E-03    1.62       4.1  T
   4    -66.1422402 -0.554615E-06  0.194E-03    1.62       8.5  T
   5    -66.1422403 -0.662181E-07  0.459E-04    1.62      35.9  T
   6    -66.1422403 -0.537858E-08  0.162E-04    1.62     101.6  T
     SCC iter.                  ...        0 min,  0.012 sec
     gradient                   ...        0 min,  0.005 sec
 * total energy  :   -65.1451937 Eh     change       -0.1153889E-04 Eh
   gradient norm :     0.0005143 Eh/α   predicted    -0.5329600E-05 ( -53.81%)
   displ. norm   :     0.1197741 α      lambda       -0.3900514E-05
   maximum displ.:     0.0841176 α      in ANC's #3, #2, #1, ...

........................................................................
.............................. CYCLE   37 ..............................
........................................................................
   1    -66.1423672 -0.661424E+02  0.207E-02    1.61       0.0  T
   2    -66.1423673 -0.632715E-07  0.114E-02    1.61       1.4  T
   3    -66.1423671  0.153771E-06  0.245E-03    1.61       6.7  T
   4    -66.1423673 -0.134486E-06  0.153E-03    1.61      10.7  T
   5    -66.1423673 -0.520920E-07  0.265E-04    1.61      62.0  T
   6    -66.1423673 -0.174728E-08  0.105E-04    1.61     156.5  T
     SCC iter.                  ...        0 min,  0.012 sec
     gradient                   ...        0 min,  0.005 sec
 * total energy  :   -65.1451974 Eh     change       -0.3754387E-05 Eh
   gradient norm :     0.0002184 Eh/α   predicted    -0.1967157E-05 ( -47.60%)
   displ. norm   :     0.0440121 α      lambda       -0.9046123E-06
   maximum displ.:     0.0315347 α      in ANC's #3, #2, #1, ...

   *** GEOMETRY OPTIMIZATION CONVERGED AFTER 37 ITERATIONS ***

------------------------------------------------------------------------
 total energy gain   :        -8.7941939 Eh    -5518.4400 kcal/mol
 total RMSD          :         1.6532412 a0        0.8749 Å
 total power (kW/mol):      -624.0311589 (step)********** (real)
------------------------------------------------------------------------

 ANCopt (total)                0 d,  0 h,  0 min,  0.901 sec
 optimizer setup                ...        0 min,  0.000 sec (  0.011%)
 model hessian                  ...        0 min,  0.007 sec (  0.755%)
 ANC generation                 ...        0 min,  0.002 sec (  0.170%)
 coordinate transformation      ...        0 min,  0.000 sec (  0.037%)
 single point calculation       ...        0 min,  0.872 sec ( 96.748%)
 optimization log               ...        0 min,  0.004 sec (  0.458%)
 hessian update                 ...        0 min,  0.013 sec (  1.432%)
 rational function              ...        0 min,  0.002 sec (  0.265%)

================
 final structure:
================
37
 xtb: 6.5.0 (746241f)
C           -0.05796668638333       10.30053018662039        3.46950288097165
C            0.86468379170497       11.00949740352399        2.76737309407729
S            1.27432419318452       10.25242220093362        1.28009078160052
C            0.17328803019822        8.94136795319786        1.60542971699939
C            0.01917199586825        7.87027853320354        0.67890581389852
C            0.65863442436122        7.68484314756809       -0.52388830233017
C            0.27173348278676        6.51690071964999       -1.18586479681452
C           -0.67270100445646        5.78701019032674       -0.50166384492597
C           -1.28179551739680        4.55989999384508       -0.87875418983340
C           -2.24600259823911        3.84335236201182       -0.20700878605863
C           -2.62532252983765        2.67073167344495       -0.86274093855885
C           -1.95808028189364        2.46537281471928       -2.04891540816445
C           -2.09321485440384        1.38373833528561       -2.96039876159870
C           -1.41341765290775        1.16893826054467       -4.13708135995856
C           -1.79371697159904       -0.00477849500229       -4.79264818668182
C           -2.77145103131954       -0.70948648414223       -4.13125274820060
C           -3.38806236785405       -1.93568873416587       -4.51283053504755
C           -4.36690341630599       -2.63827327879286       -3.85664997662821
C           -4.74530864111615       -3.81543960493622       -4.52678498488739
C           -4.05836402777181       -4.00569483817927       -5.68386602754741
S           -2.92785134226831       -2.74700583601319       -5.98494901447580
S           -3.23221583639920        0.09934583050114       -2.65907922367747
S           -0.83374462568733        3.75970634993111       -2.36053307538904
S           -1.09175873693806        6.56765254959964        0.99924143047443
C           -0.45488118037640        9.12260017438897        2.81162120489645
H           -0.44239477417729       10.60839745283135        4.42530952146978
H            1.33571222914514       11.93581538018597        3.02917328353379
H            1.38464259731593        8.38156112508852       -0.90430145300445
H            0.66281850534679        6.20427637025397       -2.13796232028061
H           -2.65681235833094        4.17074960826136        0.73171885729464
H           -3.36453742573930        1.98294016804680       -0.49171665263133
H           -0.66397515864516        1.84896620423914       -4.50185274094203
H           -1.37252020107698       -0.33888122642229       -5.72441125198023
H           -4.79195390832598       -2.30890060394933       -2.92516365428624
H           -5.49733217460298       -4.49293443947911       -4.16394714532795
H           -4.14321727640254       -4.81073233508081       -6.38617850862338
H           -1.17459666945610        8.42487088795886        3.20147730263754
 
 Bond Distances (Angstroems)
 ---------------------------
C1-C2=1.3590         C1-C25=1.4064        C1-H26=1.0752        C2-C1=1.3590         C2-S3=1.7184         C2-H27=1.0717        
S3-C2=1.7184         S3-C4=1.7427         C4-S3=1.7427         C4-C5=1.4246         C4-C25=1.3720        C5-C4=1.4246         
C5-C6=1.3748         C5-S24=1.7417        C6-C5=1.3748         C6-C7=1.3971         C6-H28=1.0757        C7-C6=1.3971         
C7-C8=1.3758         C7-H29=1.0757        C8-C7=1.3758         C8-C9=1.4209         C8-S24=1.7429        C9-C8=1.4209         
C9-C10=1.3764        C9-S23=1.7426        C10-C9=1.3764        C10-C11=1.3960       C10-H30=1.0757       C11-C10=1.3960       
C11-C12=1.3764       C11-H31=1.0757       C12-C11=1.3764       C12-C13=1.4209       C12-S23=1.7426       C13-C12=1.4209       
C13-C14=1.3758       C13-S22=1.7429       C14-C13=1.3758       C14-C15=1.3971       C14-H32=1.0757       C15-C14=1.3971       
C15-C16=1.3748       C15-H33=1.0757       C16-C15=1.3748       C16-C17=1.4246       C16-S22=1.7418       C17-C16=1.4246       
C17-C18=1.3720       C17-S21=1.7427       C18-C17=1.3720       C18-C19=1.4064       C18-H34=1.0756       C19-C18=1.4064       
C19-C20=1.3590       C19-H35=1.0753       C20-C19=1.3590       C20-S21=1.7184       C20-H36=1.0717       S21-C17=1.7427       
S21-C20=1.7184       S22-C13=1.7429       S22-C16=1.7418       S23-C9=1.7426        S23-C12=1.7426       S24-C5=1.7417        
S24-C8=1.7429        C25-C1=1.4064        C25-C4=1.3720        C25-H37=1.0755       H26-C1=1.0752        H27-C2=1.0717        
H28-C6=1.0757        H29-C7=1.0757        H30-C10=1.0757       H31-C11=1.0757       H32-C14=1.0757       H33-C15=1.0757       
H34-C18=1.0756       H35-C19=1.0753       H36-C20=1.0717       H37-C25=1.0755       
 C  H  Rav=1.0749 sigma=0.0015  Rmin=1.0717  Rmax=1.0757    12
 C  C  Rav=1.3900 sigma=0.0215  Rmin=1.3590  Rmax=1.4246    19
 S  C  Rav=1.7377 sigma=0.0096  Rmin=1.7184  Rmax=1.7429    10
 
 selected bond angles (degree)
 --------------------
C25-C1-C2=112.76               H26-C1-C2=123.55               H26-C1-C25=123.69              S3-C2-C1=112.28                
H27-C2-C1=128.54               H27-C2-S3=119.17               C4-S3-C2= 91.10                C5-C4-S3=120.84                
C25-C4-S3=110.73               C25-C4-C5=128.43               C6-C5-C4=128.32                S24-C5-C4=120.78               
S24-C5-C6=110.90               C7-C6-C5=113.48                H28-C6-C5=122.41               H28-C6-C7=124.11               
C8-C7-C6=113.45                H29-C7-C6=124.17               H29-C7-C8=122.38               C9-C8-C7=128.35                
S24-C8-C7=110.84               S24-C8-C9=120.82               C10-C9-C8=128.34               S23-C9-C8=120.80               
S23-C9-C10=110.86              C11-C10-C9=113.48              H30-C10-C9=122.34              H30-C10-C11=124.18             
 
 selected dihedral angles (degree)
 ---------------------------------
S3-C2-C1-C25=359.95           S3-C2-C1-H26=179.95           H27-C2-C1-C25=179.99          H27-C2-C1-H26=  0.00          
C4-S3-C2-C1=  0.04            C4-S3-C2-H27=180.00           C5-C4-S3-C2=180.04            C25-C4-S3-C2=  0.00           
C6-C5-C4-S3=  0.56            C6-C5-C4-C25=180.64           S24-C5-C4-S3=180.53           S24-C5-C4-C25=  0.60          
C7-C6-C5-C4=179.88            C7-C6-C5-S24=359.91           H28-C6-C5-C4=359.89           H28-C6-C5-S24=179.92          
C8-C7-C6-C5=  0.05            C8-C7-C6-H28=180.05           H29-C7-C6-C5=179.99           H29-C7-C6-H28=  0.00          
C9-C8-C7-C6=180.04            C9-C8-C7-H29=  0.10           S24-C8-C7-C6=  0.00           S24-C8-C7-H29=180.07          
C10-C9-C8-C7=181.43           C10-C9-C8-S24=  1.47          S23-C9-C8-C7=  1.48           S23-C9-C8-S24=181.53          
C11-C10-C9-C8=180.04          C11-C10-C9-S23=  0.00         H30-C10-C9-C8=  0.07          H30-C10-C9-S23=180.02         
           -------------------------------------------------
          |                Final Singlepoint                |
           -------------------------------------------------

          ...................................................
          :                      SETUP                      :
          :.................................................:
          :  # basis functions                 142          :
          :  # atomic orbitals                 137          :
          :  # shells                           67          :
          :  # electrons                       122          :
          :  max. iterations                   250          :
          :  Hamiltonian                  GFN2-xTB          :
          :  restarted?                      false          :
          :  GBSA solvation                  false          :
          :  PC potential                    false          :
          :  electronic temp.          300.0000000     K    :
          :  accuracy                    1.0000000          :
          :  -> integral cutoff          0.2500000E+02      :
          :  -> integral neglect         0.1000000E-07      :
          :  -> SCF convergence          0.1000000E-05 Eh   :
          :  -> wf. convergence          0.1000000E-03 e    :
          :  Broyden damping             0.4000000          :
          ...................................................

 iter      E             dE          RMSdq      gap      omega  full diag
   1    -66.1423673 -0.661424E+02  0.634E-05    1.61       0.0  T
   2    -66.1423673 -0.118092E-10  0.488E-05    1.61     336.9  T
   3    -66.1423673 -0.531912E-10  0.278E-05    1.61     591.0  T

   *** convergence criteria satisfied after 3 iterations ***

         #    Occupation            Energy/Eh            Energy/eV
      -------------------------------------------------------------
         1        2.0000           -0.7354623             -20.0129
       ...           ...                  ...                  ...
        55        2.0000           -0.4036292             -10.9833
        56        2.0000           -0.4030667             -10.9680
        57        2.0000           -0.4014444             -10.9239
        58        2.0000           -0.4010623             -10.9135
        59        2.0000           -0.3970416             -10.8041
        60        2.0000           -0.3756992             -10.2233
        61        2.0000           -0.3548702              -9.6565 (HOMO)
        62                         -0.2955244              -8.0416 (LUMO)
        63                         -0.2735113              -7.4426
        64                         -0.2493014              -6.7838
        65                         -0.2257214              -6.1422
        66                         -0.2203891              -5.9971
       ...                                ...                  ...
       137                          0.7045964              19.1730
      -------------------------------------------------------------
                  HL-Gap            0.0593458 Eh            1.6149 eV
             Fermi-level           -0.3251973 Eh           -8.8491 eV

 SCC (total)                   0 d,  0 h,  0 min,  0.014 sec
 SCC setup                      ...        0 min,  0.000 sec (  0.740%)
 Dispersion                     ...        0 min,  0.000 sec (  1.027%)
 classical contributions        ...        0 min,  0.000 sec (  0.081%)
 integral evaluation            ...        0 min,  0.002 sec ( 16.282%)
 iterations                     ...        0 min,  0.007 sec ( 48.166%)
 molecular gradient             ...        0 min,  0.004 sec ( 32.157%)
 printout                       ...        0 min,  0.000 sec (  1.374%)

         :::::::::::::::::::::::::::::::::::::::::::::::::::::
         ::                     SUMMARY                     ::
         :::::::::::::::::::::::::::::::::::::::::::::::::::::
         :: total energy             -65.145197433825 Eh    ::
         :: gradient norm              0.000218412481 Eh/a0 ::
         :: HOMO-LUMO gap              1.614881508814 eV    ::
         ::.................................................::
         :: SCC energy               -66.142367311854 Eh    ::
         :: -> isotropic ES            0.002925578668 Eh    ::
         :: -> anisotropic ES          0.000704475576 Eh    ::
         :: -> anisotropic XC          0.030066837189 Eh    ::
         :: -> dispersion             -0.052603979748 Eh    ::
         :: repulsion energy           0.998141043847 Eh    ::
         :: add. restraining           0.000000000000 Eh    ::
         :: total charge               0.000000000000 e     ::
         :::::::::::::::::::::::::::::::::::::::::::::::::::::

           -------------------------------------------------
          |                Property Printout                |
           -------------------------------------------------

    * Orbital Energies and Occupations

         #    Occupation            Energy/Eh            Energy/eV
      -------------------------------------------------------------
         1        2.0000           -0.7354623             -20.0129
       ...           ...                  ...                  ...
        49        2.0000           -0.4506220             -12.2620
        50        2.0000           -0.4477956             -12.1851
        51        2.0000           -0.4460035             -12.1364
        52        2.0000           -0.4451025             -12.1119
        53        2.0000           -0.4250806             -11.5670
        54        2.0000           -0.4067875             -11.0693
        55        2.0000           -0.4036292             -10.9833
        56        2.0000           -0.4030667             -10.9680
        57        2.0000           -0.4014444             -10.9239
        58        2.0000           -0.4010623             -10.9135
        59        2.0000           -0.3970416             -10.8041
        60        2.0000           -0.3756992             -10.2233
        61        2.0000           -0.3548702              -9.6565 (HOMO)
        62                         -0.2955244              -8.0416 (LUMO)
        63                         -0.2735113              -7.4426
        64                         -0.2493014              -6.7838
        65                         -0.2257214              -6.1422
        66                         -0.2203891              -5.9971
        67                         -0.2171878              -5.9100
        68                         -0.2120326              -5.7697
        69                         -0.2047044              -5.5703
        70                         -0.2038741              -5.5477
        71                         -0.1981188              -5.3911
        72                         -0.1853109              -5.0426
       ...                                ...                  ...
       137                          0.7045964              19.1730
      -------------------------------------------------------------
                  HL-Gap            0.0593458 Eh            1.6149 eV
             Fermi-level           -0.3251973 Eh           -8.8491 eV

     #   Z          covCN         q      C6AA      α(0)
     1   6 C        3.107    -0.041    28.875     8.804
     2   6 C        2.941    -0.019    28.486     8.753
     3  16 S        2.327    -0.030   142.279    20.076
     4   6 C        3.024     0.020    27.538     8.608
     5   6 C        3.022     0.022    27.489     8.600
     6   6 C        3.097    -0.048    29.061     8.835
     7   6 C        3.096    -0.048    29.062     8.835
     8   6 C        3.023     0.022    27.497     8.601
     9   6 C        3.023     0.022    27.488     8.600
    10   6 C        3.096    -0.047    29.057     8.834
    11   6 C        3.096    -0.047    29.057     8.834
    12   6 C        3.023     0.022    27.488     8.600
    13   6 C        3.023     0.022    27.497     8.601
    14   6 C        3.096    -0.048    29.062     8.835
    15   6 C        3.097    -0.048    29.061     8.835
    16   6 C        3.022     0.022    27.489     8.600
    17   6 C        3.024     0.020    27.538     8.608
    18   6 C        3.110    -0.050    29.094     8.837
    19   6 C        3.107    -0.041    28.875     8.804
    20   6 C        2.941    -0.019    28.485     8.753
    21  16 S        2.327    -0.030   142.279    20.076
    22  16 S        2.345    -0.044   142.873    20.118
    23  16 S        2.344    -0.044   142.857    20.117
    24  16 S        2.345    -0.044   142.872    20.118
    25   6 C        3.110    -0.050    29.093     8.837
    26   1 H        0.926     0.040     2.455     2.450
    27   1 H        0.926     0.046     2.371     2.408
    28   1 H        0.926     0.045     2.381     2.413
    29   1 H        0.926     0.045     2.387     2.416
    30   1 H        0.926     0.045     2.385     2.415
    31   1 H        0.926     0.045     2.385     2.415
    32   1 H        0.926     0.045     2.387     2.416
    33   1 H        0.926     0.045     2.381     2.413
    34   1 H        0.926     0.043     2.409     2.427
    35   1 H        0.926     0.039     2.455     2.450
    36   1 H        0.926     0.046     2.371     2.408
    37   1 H        0.926     0.043     2.409     2.427

 Mol. C6AA /au·bohr⁶  :      34115.317079
 Mol. C8AA /au·bohr⁸  :    1112520.539335
 Mol. α(0) /au        :        304.178589


Wiberg/Mayer (AO) data.
largest (>0.10) Wiberg bond orders for each atom

 ---------------------------------------------------------------------------
     #   Z sym  total        # sym  WBO       # sym  WBO       # sym  WBO
 ---------------------------------------------------------------------------
     1   6 C    3.987 --     2 C    1.602    25 C    1.302    26 H    0.965
     2   6 C    3.924 --     1 C    1.602     3 S    1.193    27 H    0.970
     3  16 S    2.600 --     2 C    1.193     4 C    1.124
     4   6 C    3.952 --    25 C    1.504     5 C    1.165     3 S    1.124
     5   6 C    3.929 --     6 C    1.477     4 C    1.165    24 S    1.122
     6   6 C    3.985 --     5 C    1.477     7 C    1.345    28 H    0.961
     7   6 C    3.970 --     8 C    1.469     6 C    1.345    29 H    0.961
     8   6 C    3.939 --     7 C    1.469     9 C    1.178    24 S    1.118
     9   6 C    3.931 --    10 C    1.465     8 C    1.178    23 S    1.118
    10   6 C    3.972 --     9 C    1.465    11 C    1.351    30 H    0.961
    11   6 C    3.972 --    12 C    1.465    10 C    1.351    31 H    0.961
    12   6 C    3.931 --    11 C    1.465    13 C    1.178    23 S    1.118
    13   6 C    3.939 --    14 C    1.469    12 C    1.178    22 S    1.118
    14   6 C    3.970 --    13 C    1.469    15 C    1.345    32 H    0.961
    15   6 C    3.985 --    16 C    1.477    14 C    1.345    33 H    0.961
    16   6 C    3.929 --    15 C    1.477    17 C    1.165    22 S    1.122
    17   6 C    3.952 --    18 C    1.504    16 C    1.165    21 S    1.124
    18   6 C    3.969 --    17 C    1.504    19 C    1.302    34 H    0.962
    19   6 C    3.987 --    20 C    1.602    18 C    1.302    35 H    0.965
    20   6 C    3.924 --    19 C    1.602    21 S    1.193    36 H    0.970
    21  16 S    2.600 --    20 C    1.193    17 C    1.124
    22  16 S    2.562 --    16 C    1.122    13 C    1.118
    23  16 S    2.556 --    12 C    1.118     9 C    1.118
    24  16 S    2.562 --     5 C    1.122     8 C    1.118
    25   6 C    3.969 --     4 C    1.504     1 C    1.302    37 H    0.962
    26   1 H    0.998 --     1 C    0.965
    27   1 H    0.997 --     2 C    0.970
    28   1 H    0.998 --     6 C    0.961
    29   1 H    0.998 --     7 C    0.961
    30   1 H    0.998 --    10 C    0.961
    31   1 H    0.998 --    11 C    0.961
    32   1 H    0.998 --    14 C    0.961
    33   1 H    0.998 --    15 C    0.961
    34   1 H    0.998 --    18 C    0.962
    35   1 H    0.998 --    19 C    0.965
    36   1 H    0.997 --    20 C    0.970
    37   1 H    0.998 --    25 C    0.962
 ---------------------------------------------------------------------------

Topologies differ in total number of bonds
Writing topology from bond orders to xtbtopo.mol

MOs/occ written to file <molden.input>


molecular dipole:
                 x           y           z       tot (Debye)
 q only:       -0.056      -0.019       0.066
   full:       -0.224      -0.073       0.260       0.892
molecular quadrupole (traceless):
                xx          xy          yy          xz          yz          zz
 q only:       -4.025       5.034       5.295      -0.399       7.747      -1.270
  q+dip:       -5.212       7.926       7.751      -1.893      14.588      -2.539
   full:       -4.416       5.581       8.056       1.230      13.620      -3.640

           -------------------------------------------------
          |                Geometry Summary                 |
           -------------------------------------------------

      molecular mass/u    :      412.6339440
   center of mass at/Å    :       -1.5095922       3.5388958      -1.5747445
  moments of inertia/u·Å² :        0.4795206E+03   0.1274310E+05   0.1322209E+05
rotational constants/cm⁻¹ :        0.3515518E-01   0.1322883E-02   0.1274960E-02

 * 41 selected distances

     #   Z          #   Z                                           value/Å
     1   6 C        2   6 C                                       1.3590088
     2   6 C        3  16 S                                       1.7184229
     3  16 S        4   6 C                                       1.7426961
     4   6 C        5   6 C                                       1.4245811
     5   6 C        6   6 C                                       1.3747773
     6   6 C        7   6 C                                       1.3971382
     7   6 C        8   6 C                                       1.3758009
     8   6 C        9   6 C                                       1.4209128
     9   6 C       10   6 C                                       1.3763641
    10   6 C       11   6 C                                       1.3960329
    11   6 C       12   6 C                                       1.3763701
    12   6 C       13   6 C                                       1.4209141
    13   6 C       14   6 C                                       1.3758073
    14   6 C       15   6 C                                       1.3971424
    15   6 C       16   6 C                                       1.3747805
    16   6 C       17   6 C                                       1.4245643
    17   6 C       18   6 C                                       1.3719796
    18   6 C       19   6 C                                       1.4064112
    19   6 C       20   6 C                                       1.3590169
    17   6 C       21  16 S                                       1.7427458
    20   6 C       21  16 S                                       1.7184320
    13   6 C       22  16 S                                       1.7429232 (max)
    16   6 C       22  16 S                                       1.7417834
     9   6 C       23  16 S                                       1.7426212
    12   6 C       23  16 S                                       1.7425660
     5   6 C       24  16 S                                       1.7417282
     8   6 C       24  16 S                                       1.7429082
     1   6 C       25   6 C                                       1.4063673
     4   6 C       25   6 C                                       1.3719839
     1   6 C       26   1 H                                       1.0752366
     2   6 C       27   1 H                                       1.0716680 (min)
     6   6 C       28   1 H                                       1.0757408
     7   6 C       29   1 H                                       1.0757190
    10   6 C       30   1 H                                       1.0757153
    11   6 C       31   1 H                                       1.0757114
    14   6 C       32   1 H                                       1.0757139
    15   6 C       33   1 H                                       1.0757388
    18   6 C       34   1 H                                       1.0755563
    19   6 C       35   1 H                                       1.0752628
    20   6 C       36   1 H                                       1.0716942
    25   6 C       37   1 H                                       1.0755485

 * 3 distinct bonds (by element types)

   Z      Z             #   av. dist./Å        max./Å        min./Å
   1 H    6 C          12     1.0749421     1.0757408     1.0716680
   6 C    6 C          19     1.3899976     1.4245811     1.3590088
   6 C   16 S          10     1.7376827     1.7429232     1.7184229


optimized geometry written to: xtbopt.xyz


           -------------------------------------------------
          | TOTAL ENERGY              -65.145197433825 Eh   |
          | GRADIENT NORM               0.000218412481 Eh/α |
          | HOMO-LUMO GAP               1.614881508814 eV   |
           -------------------------------------------------

------------------------------------------------------------------------
 * finished run on 2022/07/20 at 15:45:11.066     
------------------------------------------------------------------------
 total:
 * wall-time:     0 d,  0 h,  0 min,  1.026 sec
 *  cpu-time:     0 d,  0 h,  0 min, 16.265 sec
 * ratio c/w:    15.854 speedup
 SCF:
 * wall-time:     0 d,  0 h,  0 min,  0.066 sec
 *  cpu-time:     0 d,  0 h,  0 min,  0.988 sec
 * ratio c/w:    14.954 speedup
 ANC optimizer:
 * wall-time:     0 d,  0 h,  0 min,  0.916 sec
 *  cpu-time:     0 d,  0 h,  0 min, 14.603 sec
 * ratio c/w:    15.947 speedup

