37
 energy: -56.351003556232 gnorm: 8.463169129386 xtb: 6.5.0 (746241f)
C           -0.46457000000000        9.30047000000000        3.12720000000000
C            0.44013000000000       10.13440000000000        2.57910000000000
S            0.75873000000000        9.34577000000000        1.08570000000000
C            0.05043000000000        8.48777000000000        1.28270000000000
C            0.04643000000000        7.47987000000000        0.13680000000000
C            0.49633000000000        7.24577000000000       -0.85570000000000
C            0.06803000000000        6.03687000000000       -1.48440000000000
C           -0.66287000000000        5.61857000000000       -0.76950000000000
C           -1.50447000000000        4.37557000000000       -0.77850000000000
C           -2.26867000000000        3.85427000000000       -0.17390000000000
C           -2.65417000000000        2.64867000000000       -0.84370000000000
C           -2.07747000000000        2.55617000000000       -1.78180000000000
C           -1.89997000000000        1.63207000000000       -2.95160000000000
C           -1.23897000000000        1.65817000000000       -3.83600000000000
C           -1.57487000000000        0.46177000000000       -4.54010000000000
C           -2.36867000000000       -0.17773000000000       -4.08920000000000
C           -3.16957000000000       -1.46263000000000       -4.28030000000000
C           -3.94847000000000       -1.69713000000000       -3.49470000000000
C           -4.60147000000000       -2.91293000000000       -3.86330000000000
C           -4.00247000000000       -3.28383000000000       -5.01100000000000
S           -2.86227000000000       -2.01453000000000       -5.21700000000000
S           -2.25867000000000        0.68047000000000       -3.38510000000000
S           -1.63837000000000        3.51817000000000       -1.46230000000000
S           -0.43257000000000        6.52227000000000       -0.17570000000000
C           -0.62647000000000        8.26197000000000        2.15990000000000
H           -0.96537000000000        9.38767000000000        4.08590000000000
H            0.91563000000000       11.06180000000000        2.87440000000000
H            1.23673000000000        7.89227000000000       -1.34290000000000
H            0.45823000000000        5.72817000000000       -2.45530000000000
H           -2.71267000000000        4.14467000000000        0.77990000000000
H           -3.40357000000000        1.97617000000000       -0.42300000000000
H           -0.47537000000000        2.34397000000000       -4.20630000000000
H           -1.06657000000000        0.20917000000000       -5.47900000000000
H           -4.24787000000000       -1.17923000000000       -2.58760000000000
H           -5.40057000000000       -3.41613000000000       -3.32830000000000
H           -4.10337000000000       -4.11013000000000       -5.70400000000000
H           -1.31537000000000        7.44527000000000        2.35800000000000
37
 energy: -60.807668733030 gnorm: 3.795251370042 xtb: 6.5.0 (746241f)
C           -0.46518527959102        9.30046762061252        3.12814405335180
C            0.44223286036347       10.13867098790111        2.58048185999335
S            0.82889747253023        9.43058942447661        1.06626338055429
C            0.00910718332672        8.42628255531943        1.28072592236720
C            0.08188395268500        7.57941244313573        0.19203653396724
C            0.53144209056882        7.26417067200212       -0.89179313348859
C            0.09095699086955        6.03377432489095       -1.52380432285663
C           -0.70551372658824        5.51396326159272       -0.81308259979495
C           -1.47215914236523        4.47668977289107       -0.72272950537460
C           -2.29519440460196        3.85233251161244       -0.13652422250048
C           -2.68542194984122        2.63208836241331       -0.81451498031914
C           -2.10874545870528        2.45462938484354       -1.83758600837711
C           -1.87950202447912        1.73043081874926       -2.88389426145534
C           -1.20645797852591        1.67903371797285       -3.86046315587074
C           -1.54183432062404        0.46504544675716       -4.58213036147443
C           -2.39910962186854       -0.27758292593841       -4.14667015570586
C           -3.17800524005398       -1.41565973596061       -4.22351407516052
C           -3.97181046029750       -1.70014673295831       -3.46733295287864
C           -4.60228096142952       -2.91336708121521       -3.86260998943244
C           -4.00292807146181       -3.28766575383721       -5.01411357188918
S           -2.83191621676510       -2.06910154551473       -5.30977859700621
S           -2.32106231702974        0.65384496912709       -3.32315400246646
S           -1.57566438684072        3.53917433746239       -1.53602457838677
S           -0.48882476262625        6.51228451784736       -0.10379947355999
C           -0.64942290227184        8.25042242028632        2.18527168176626
H           -0.96500914346655        9.38772352566632        4.08535503629872
H            0.91498925117695       11.06155299673756        2.87517841363008
H            1.24008765457104        7.89263537779520       -1.34773124347457
H            0.46119423734909        5.72961149642940       -2.45873133366347
H           -2.71682040607916        4.14314889076571        0.78462301258675
H           -3.40766808882803        1.97499541839520       -0.41812598662828
H           -0.47228820996561        2.34449559623310       -4.20990072710990
H           -1.06245439362681        0.21117607719917       -5.48272061792854
H           -4.24932984194767       -1.17894642845661       -2.58545216611294
H           -5.40009618517558       -3.41591547645117       -3.32871232912888
H           -4.10407109820551       -4.11030350230543       -5.70325845698308
H           -1.31710510017893        7.44399225352206        2.35947291451204
37
 energy: -62.388764440255 gnorm: 2.221205579707 xtb: 6.5.0 (746241f)
C           -0.46662431200742        9.30428510211829        3.13475890092941
C            0.44298652965584       10.14225559668510        2.58314925845793
S            0.86682312548550        9.47723890720245        1.05712402580428
C            0.01877731019794        8.41740430368718        1.25357914001733
C            0.11383028775069        7.64368914455286        0.21320766470457
C            0.56042398908695        7.27446875403735       -0.92682620019706
C            0.11953518316823        6.04553515659582       -1.55544885787131
C           -0.71848268533274        5.46659787833647       -0.84185897860240
C           -1.46723724876164        4.52127013600578       -0.68400739747974
C           -2.32762516877984        3.83761089356050       -0.10369454065825
C           -2.71485014431374        2.62716079231646       -0.77641360446552
C           -2.13417988981865        2.40323475599090       -1.85199707959206
C           -1.86277573158016        1.77921729683524       -2.86009173158087
C           -1.17815808230549        1.68527204268364       -3.89387356196512
C           -1.51089500814649        0.47386720203359       -4.61589520345677
C           -2.40650501344405       -0.33541539284874       -4.19371426172073
C           -3.15651076057001       -1.39658608163047       -4.23260773568855
C           -4.01694123961890       -1.71860954462079       -3.42688126816605
C           -4.60726865896752       -2.91929761152264       -3.86171013035586
C           -4.00455692427335       -3.29160775169886       -5.01562252151798
S           -2.81662064601247       -2.09969740059091       -5.35999340064325
S           -2.38982076812327        0.62606881335221       -3.25320576572899
S           -1.51241043879724        3.56013765433982       -1.61040891464440
S           -0.55188456594190        6.49960623299252       -0.02476019342375
C           -0.68496935841261        8.24320363072274        2.23723393520086
H           -0.96408103101095        9.38890151209531        4.08518447301524
H            0.91360850080258       11.06099037827532        2.87679586851004
H            1.25120300259296        7.89574125675898       -1.36165893313809
H            0.46982977500579        5.73167999316685       -2.47081966782402
H           -2.72655587111298        4.14034045288530        0.79654000742980
H           -3.41780353232664        1.97123701465918       -0.40679468279841
H           -0.46187809253539        2.34858624215502       -4.21990868346424
H           -1.05025097178910        0.21542012965955       -5.49538756248657
H           -4.25448929239584       -1.17759060449315       -2.57756432030795
H           -5.39976269395270       -3.41670037041296       -3.32996502702386
H           -4.10553055355712       -4.11063554489056       -5.70165462805107
H           -1.32343901985826        7.43906902900467        2.36459157878338
37
 energy: -63.462744931272 gnorm: 1.357505867242 xtb: 6.5.0 (746241f)
C           -0.46712901259050        9.30828399402293        3.14009737785969
C            0.44609099521305       10.15329930470870        2.59060915706642
S            0.91543512146908        9.55528571107573        1.06597443631192
C            0.01296430448990        8.40854581605956        1.25133984338957
C            0.14717920215112        7.68990604590117        0.21168661890226
C            0.59105785133984        7.28326273037308       -0.96601392537687
C            0.15962717452905        6.07027327193143       -1.59082505955486
C           -0.70610668030768        5.44488942641087       -0.88277639466243
C           -1.48878055359265        4.53823605582582       -0.63403963398989
C           -2.37121562738905        3.81441798957151       -0.06306639661801
C           -2.75199093776365        2.62471851246269       -0.72442486191145
C           -2.17323822532891        2.36673111936782       -1.83211756613856
C           -1.83217689443463        1.81502679220522       -2.86915034934874
C           -1.14474221026044        1.68369747287154       -3.94236483000178
C           -1.47676335351515        0.48574363190999       -4.65115909125786
C           -2.39780044853340       -0.36906675419756       -4.23882287807246
C           -3.15604099800840       -1.38907117364767       -4.22482355310235
C           -4.05065391469445       -1.73815955639461       -3.40236427136032
C           -4.61111473822195       -2.92478518861782       -3.86182792944675
C           -4.00901534997523       -3.30332753208291       -5.02108959566658
S           -2.81138146715843       -2.16210640962253       -5.42788918211455
S           -2.47874281841860        0.58219368663781       -3.17128176518516
S           -1.43609081971337        3.58563163568760       -1.70002142722111
S           -0.62735375878312        6.49257610428409        0.07909781357921
C           -0.70751923812035        8.24474274451445        2.27735745066534
H           -0.96316754512598        9.39058113044450        4.08572120682564
H            0.91220552583117       11.06283651354113        2.88138185772529
H            1.27097186026124        7.90597084363052       -1.38170460959810
H            0.48308884451223        5.73181138671938       -2.49227102124558
H           -2.74209018348750        4.13942397774687        0.81898571479442
H           -3.43633905701231        1.96096263937771       -0.38951476585830
H           -0.44392846187910        2.35851141641778       -4.23457418650454
H           -1.03187415814375        0.21726321427774       -5.51893610384947
H           -4.25820040836264       -1.17197553304246       -2.56728538727096
H           -5.39991208123058       -3.41820233369333       -3.33126517131889
H           -4.10909449503645       -4.11413150278021       -5.70045498548299
H           -1.33124744270838        7.42995281610149        2.36721346503876
37
 energy: -64.145763031878 gnorm: 0.830361394743 xtb: 6.5.0 (746241f)
C           -0.46755900006703        9.31748335125636        3.15133353705076
C            0.44888666095517       10.16698297154818        2.60173334393220
S            0.96327909487975        9.63676972410472        1.07998522430202
C            0.01076555577118        8.41362409471802        1.25845879425642
C            0.17783715324657        7.71525133747311        0.19048705758554
C            0.62016344921366        7.28644892780142       -1.00883479586921
C            0.19853567196368        6.09340280313980       -1.62636491809458
C           -0.68494921818102        5.43823618573278       -0.92199526414499
C           -1.51637681932511        4.54077650252491       -0.59017468802019
C           -2.41317086588811        3.79134374176042       -0.02478380710833
C           -2.78699525129500        2.62324257875976       -0.67413978317028
C           -2.20946165244237        2.34401415251931       -1.80279247783739
C           -1.80082787848755        1.83876803336980       -2.89107798121727
C           -1.11140455263705        1.68331574531945       -3.98929063667309
C           -1.44041627057210        0.50347679293257       -4.68366897368334
C           -2.37588443522768       -0.37812954056100       -4.27719175096155
C           -3.16110771621091       -1.39638984426568       -4.22366364958090
C           -4.08375641318173       -1.76190879425045       -3.38257980062220
C           -4.61909405830709       -2.93687449399353       -3.86298990198190
C           -4.01614304160421       -3.31871210171689       -5.02665763488576
S           -2.80994002861719       -2.22946878486001       -5.49560310999224
S           -2.57359664038484        0.54328468483160       -3.07625171184795
S           -1.35223957832442        3.61360266518092       -1.79857934519192
S           -0.71298405789448        6.47561867201051        0.18832429873187
C           -0.72667618838204        8.25165813245095        2.31782461362405
H           -0.96239856733806        9.39556467088386        4.09046926453983
H            0.91081344585459       11.06883974051419        2.89099052485916
H            1.30062641504035        7.92209370852738       -1.41077390765181
H            0.50047397391361        5.72790408919047       -2.52435338987547
H           -2.76447583099314        4.14182364385702        0.85489713489039
H           -3.46552487032900        1.94176075241625       -0.36550295755159
H           -0.41771400879081        2.37646967193794       -4.25290210053201
H           -1.00501108539246        0.21898323371267       -5.55439648515621
H           -4.26631475466595       -1.16730294283583       -2.55224128868642
H           -5.40310655093311       -3.42409820055912       -3.33298931620433
H           -4.11625524524014       -4.12301833563311       -5.70000396592657
H           -1.34308684012595        7.41911243020127        2.37469984869526
37
 energy: -64.510425982850 gnorm: 0.521679591217 xtb: 6.5.0 (746241f)
C           -0.46639450168375        9.33304571735750        3.16708238869933
C            0.45129761959457       10.18565604560030        2.61926533991320
S            1.00944692372073        9.71548300332447        1.09393875948539
C            0.01683498994036        8.42910834715078        1.26368286036074
C            0.19831958187771        7.72476355332228        0.16650739317730
C            0.64530299733954        7.29109743697651       -1.04345770825936
C            0.22900500149617        6.11377175572149       -1.65233741658695
C           -0.66807649121066        5.44353466706966       -0.94369047649419
C           -1.53659177029604        4.53686282266220       -0.56499979564763
C           -2.44547228664783        3.77505872924386        0.00593941761423
C           -2.81461314430085        2.62022781418074       -0.63569155824933
C           -2.23141831108803        2.33508007953311       -1.78059954523548
C           -1.78237429405813        1.84531146490202       -2.91102869436814
C           -1.08645607230858        1.68039674052270       -4.02652515567247
C           -1.41070017559644        0.51630708566758       -4.71200201753196
C           -2.35421897967490       -0.37414647575406       -4.30163099818199
C           -3.16289447675069       -1.41064871526736       -4.23351551932347
C           -4.10648033651567       -1.78227380453827       -3.37296840699477
C           -4.62982596224446       -2.95582760967110       -3.86712075422727
C           -4.02786049028020       -3.34079697648347       -5.03271767773762
S           -2.80894478785371       -2.29469627995922       -5.56092393123715
S           -2.66439892878346        0.50523530357252       -2.98556835984940
S           -1.27363984314334        3.64002957419811       -1.89138169736493
S           -0.79490066335429        6.46025931664311        0.29310160912192
C           -0.73704932525810        8.26126685023305        2.34651611463460
H           -0.96175744115070        9.40629314363776        4.10231428557854
H            0.90863699288472       11.08401376723224        2.91292695289148
H            1.33744320759900        7.94250995342901       -1.44620224325379
H            0.52222004192527        5.72379925583640       -2.56284321327648
H           -2.79245969307137        4.14554610844281        0.90037265904942
H           -3.50237892426331        1.91692210014152       -0.33570032102715
H           -0.38610998077488        2.39765826996815       -4.27578292635595
H           -0.97215124619418        0.22050917176687       -5.59848160990543
H           -4.27745651193168       -1.16662150887414       -2.53737761594717
H           -5.41138894645112       -3.43753518181520       -3.33561940820851
H           -4.13236580590205       -4.14437651621722       -5.70036585964297
H           -1.35521796558966        7.41112499024333        2.38628513005338
37
 energy: -64.697122530951 gnorm: 0.375072790772 xtb: 6.5.0 (746241f)
C           -0.46193093125404        9.35711963706733        3.18686429208814
C            0.45507224116760       10.21534095157292        2.64727345685735
S            1.05626188641529        9.79677758748782        1.11056280462056
C            0.03653613016316        8.46054308420558        1.26477770109224
C            0.21176663293577        7.73200411444510        0.14888565384266
C            0.66939786367252        7.30574850377628       -1.06568606579135
C            0.25034631872613        6.13402601877005       -1.66584312707350
C           -0.65745924793658        5.46497612769441       -0.94219020332913
C           -1.54936705288224        4.52980058832456       -0.55637250057375
C           -2.46855221415150        3.76798371037863        0.03170616700701
C           -2.83674188577725        2.61276019453607       -0.60923594574508
C           -2.24062135150299        2.33661033697131       -1.76656099029219
C           -1.78100768780126        1.82875264914326       -2.92819141267364
C           -1.07199459249639        1.67155017489242       -4.05414209276361
C           -1.38978120993336        0.51583453002782       -4.74116082906149
C           -2.33838570688964       -0.37155798628008       -4.31843867049514
C           -3.15867551029983       -1.43485932781404       -4.26133113696544
C           -4.11663315088529       -1.80329877828868       -3.38042098457618
C           -4.64254480139242       -2.98305176280930       -3.87648575505272
C           -4.04661258329040       -3.37596328384308       -5.04228544145581
S           -2.80984756854388       -2.36299337302322       -5.62735908923752
S           -2.74306342102521        0.46311874956315       -2.91452104395603
S           -1.20982070334879        3.66208185335905       -1.96776352890847
S           -0.86145790686367        6.45782795124209        0.38580124704285
C           -0.73348633717743        8.27990602203426        2.36201532675461
H           -0.95994165079724        9.42610524322762        4.12299669010514
H            0.90371555373807       11.11403861532432        2.95733523099840
H            1.37653904188134        7.96298443241786       -1.48441285088297
H            0.54553721088931        5.72681428654050       -2.59429687797361
H           -2.82309794881462        4.14506706774862        0.94510377364222
H           -3.53907713538298        1.89540062728568       -0.30211988483538
H           -0.35918871910297        2.41033431984391       -4.30135142349169
H           -0.93694811436775        0.22328928980082       -5.64490639958425
H           -4.29213605038552       -1.17990362276649       -2.53204127100104
H           -5.42570018616464       -3.46180459059294       -3.34118766551719
H           -4.16509241583265       -4.18709563624381       -5.70038707303037
H           -1.36109679528866        7.41768169398024        2.40476992021635
37
 energy: -64.808657391285 gnorm: 0.305308944669 xtb: 6.5.0 (746241f)
C           -0.45236115123298        9.39080417376810        3.20910265442083
C            0.46284775247891       10.25823169395827        2.68401750823305
S            1.10317452486466        9.88212820042660        1.13282737420749
C            0.06759758670000        8.50775373845234        1.26550480658068
C            0.21864391819449        7.74217388902472        0.14220371047646
C            0.69181183103555        7.33134081459810       -1.07404976075870
C            0.26290664556966        6.15574450580683       -1.66627087053801
C           -0.65401323194531        5.50055120868987       -0.91902695433419
C           -1.55258278606612        4.52253160360771       -0.56503666077065
C           -2.48091716545906        3.76917139116122        0.04887599290970
C           -2.85061765954127        2.60325645813535       -0.59640644228502
C           -2.23611839800454        2.34676457865324       -1.76381495661861
C           -1.79578835904492        1.79128201992072       -2.94127037876349
C           -1.06830738100019        1.65531820193933       -4.07288376796688
C           -1.37872827508934        0.50064191781180       -4.77068152252509
C           -2.33139378933920       -0.37639229711456       -4.32915611469710
C           -3.15172251576365       -1.47057851725047       -4.30457974755795
C           -4.11822628746713       -1.83119226643154       -3.40588079519410
C           -4.65575625016235       -3.01863563099927       -3.89324880192576
C           -4.07057074091587       -3.42504707370958       -5.05864628056153
S           -2.81497546971192       -2.43676499783109       -5.69454798243889
S           -2.81207469717067        0.41456213919556       -2.86130289343343
S           -1.15592826889077        3.68142684816132       -2.03357944420755
S           -0.91465292547436        6.46943185556695        0.46957738569804
C           -0.71593767491960        8.31242202107148        2.36996081919994
H           -0.95397812133173        9.45594816239358        4.14844837716966
H            0.89536618207061       11.15839177853051        3.02473928605748
H            1.41359747995864        7.98192778707243       -1.51962201287054
H            0.56725084613571        5.74047041277208       -2.60946941905904
H           -2.85150432209220        4.13874327809147        0.97994751583666
H           -3.56812373813089        1.88264598456632       -0.26971565446579
H           -0.34411914917444        2.40755530237868       -4.32668769279355
H           -0.90441417108413        0.22582044195494       -5.68846979374428
H           -4.31166266421299       -1.21522108172814       -2.54249645083264
H           -5.44240029546185       -3.49578856248644       -3.35313959391301
H           -4.21492161491190       -4.25106370529860       -5.69919953969855
H           -1.35648966340890        7.44759372514025        2.43337810116433
37
 energy: -64.889534288270 gnorm: 0.258415355881 xtb: 6.5.0 (746241f)
C           -0.43693604716175        9.43397505209140        3.23278104603162
C            0.47605456906948       10.31220676424012        2.72484366968684
S            1.14632679064881        9.96645762560717        1.16123437325152
C            0.10471796601595        8.56545640967822        1.26876851140129
C            0.21842610558396        7.75567538279390        0.14801139745978
C            0.71100404555753        7.36536694577054       -1.06893768987537
C            0.26668882034127        6.17922033794595       -1.65305434798889
C           -0.65795565194424        5.54679777322424       -0.87717285477700
C           -1.54523648073989        4.51610979410018       -0.59122822096636
C           -2.48156127718748        3.77650659357243        0.05359151923268
C           -2.85347804257383        2.59524328702443       -0.59796147201886
C           -2.21748155502558        2.36487188932805       -1.77355604093684
C           -1.82463292848013        1.73680885445867       -2.94921252572508
C           -1.07575206206167        1.63118389675146       -4.08273716796737
C           -1.37757234499688        0.47272878886078       -4.79840958129681
C           -2.33442297563270       -0.38970402715722       -4.33322251572270
C           -3.14536530533910       -1.51516157582411       -4.35645632732122
C           -4.11578930439766       -1.86797419981122       -3.44560169357130
C           -4.66866253361172       -3.06195463898668       -3.91817413641153
C           -4.09618108678136       -3.48427785953041       -5.08297334490647
S           -2.82561885129542       -2.51241792969447       -5.75736144948943
S           -2.87227087225391        0.36094561416684       -2.82320738542957
S           -1.10925248093994        3.69887387759717       -2.09180765105132
S           -0.95648129476867        6.49269671432409        0.54510174041585
C           -0.68767857548268        8.35831068390034        2.37562218443448
H           -0.94218242547253        9.49527076136480        4.17498023523762
H            0.88605440881931       11.21214566533021        3.10500957888690
H            1.44561367545124        7.99890906724309       -1.54703081448411
H            0.58461940426223        5.76361598796275       -2.60646845772100
H           -2.87326088941338        4.12741425139195        0.99919740305318
H           -3.58464885191697        1.88080817204870       -0.24340310770465
H           -0.34264659796688        2.38915151723295       -4.34886683804509
H           -0.87854291775059        0.22615993393756       -5.72567224256190
H           -4.33616114643803       -1.27126510823007       -2.56735355400941
H           -5.45843204236734       -3.53740590899196       -3.37323693351235
H           -4.27404755642864       -4.32800511235324       -5.69860057907761
H           -1.34234368732087        7.49920471863151        2.47196527348044
37
 energy: -64.956611809895 gnorm: 0.207847160335 xtb: 6.5.0 (746241f)
C           -0.41713679780337        9.48301888246635        3.25644465622369
C            0.49342781263623       10.37210618677392        2.76588103903699
S            1.18152534555592       10.04331463998939        1.19475077161236
C            0.14266158416818        8.62571456644003        1.27417821060888
C            0.20958374167401        7.76760867289213        0.16394029036281
C            0.72516052362665        7.40211698961493       -1.05345565491023
C            0.26237879584405        6.20182353372413       -1.62923760167849
C           -0.66911371049182        5.59803890153679       -0.82179920323029
C           -1.52704955884371        4.51038005920997       -0.63475428208627
C           -2.47075733270002        3.78838198976484        0.04484747728010
C           -2.84473916643210        2.59042619540246       -0.61321677307628
C           -2.18465843763643        2.39082910092863       -1.79572707004232
C           -1.86388337473039        1.67192819953000       -2.95070799047753
C           -1.09208183753643        1.60253686561919       -4.08368578777058
C           -1.38459616754142        0.43781910110238       -4.82120386072214
C           -2.34619826924687       -0.40673041145639       -4.32788019903865
C           -3.14055452524887       -1.56250186832607       -4.40973026155082
C           -4.11162112697417       -1.91053160911043       -3.49374286526294
C           -4.68063941580553       -3.10960591454623       -3.94894136230862
C           -4.12105371257177       -3.54798536025261       -5.11296252197468
S           -2.84197587176065       -2.58467838362199       -5.81011577709752
S           -2.92351621591711        0.30730492816916       -2.79562092316477
S           -1.06719032425131        3.71502983096615       -2.14505600891184
S           -0.98984593031709        6.52153008784850        0.61123792707619
C           -0.65305745355215        8.41234901271470        2.38074639050550
H           -0.92573360160497        9.54051142285836        4.20035035153550
H            0.87783824384005       11.26903748749711        3.18704193363598
H            1.46947612057650        8.01157130515221       -1.56439855350109
H            0.59563934368082        5.79228205261882       -2.58791951538540
H           -2.88521710399652        4.11349752381639        1.00085346469581
H           -3.58673507880540        1.88917373980496       -0.22707751611939
H           -0.35319220193503        2.35918049306149       -4.36526531979989
H           -0.86154962732461        0.22502166973576       -5.75267999095661
H           -4.36307837297671       -1.34021738525193       -2.60247784422856
H           -5.47246530305869       -3.58297670186770       -3.39953376193076
H           -4.33409470330988       -4.40817551267850       -5.69974087419404
H           -1.32104628922946        7.56481970787326        2.51605900684584
37
 energy: -65.011673140481 gnorm: 0.148491197754 xtb: 6.5.0 (746241f)
C           -0.39417849769567        9.53471524497355        3.27854707620533
C            0.51359821621669       10.43316515044748        2.80381853158448
S            1.20403621803133       10.10473861795515        1.23113327459676
C            0.17644198050419        8.68110499902656        1.28126732610373