[Molden Format]
[Title]
[Atoms] AU
V      1    23  0.57316719374046E-01  0.35851184900589E+01 -0.64343766863625E-01
F      2     9 -0.79273460388673E-01  0.23183988968117E+01 -0.28954499497007E+01
F      3     9  0.19390418993951E+00  0.48526809330956E+01  0.27663744126393E+01
F      4     9  0.22274871621755E+01  0.15017945912190E+01  0.76346054034758E+00
F      5     9  0.91005936302949E+00  0.63089241097533E+01 -0.13247970018890E+01
F      6     9 -0.29655638194489E+01  0.29449692912909E+01  0.36868471820649E+00
[GTO]
           1 0
 d           3   1.00000000000000     
   1.46460111354144       0.541289269380067     
  0.459227846414705       0.246584099394188     
  0.178880564004989       3.285310212979427E-002
 s           4   1.00000000000000     
  0.620292328285123      -5.582646320423134E-002
  0.318202693131201      -8.591824705220233E-002
  9.721032919384519E-002  0.110551834768339     
  5.412501888606512E-002  2.813397944339200E-002
 p           4   1.00000000000000     
   1.31333209181317      -1.209486867993664E-002
  0.380783281880219      -2.563900016215085E-002
  6.645953291714139E-002  3.103120358203114E-002
  3.261115169061254E-002  8.134410154093333E-003
 
           2 0
 s           4   1.00000000000000     
   67.8191594740697      -0.201850789245403     
   11.6790204412661      -0.246385510808000     
  0.938459125048083       0.394518855091218     
  0.357670001280168       0.157234426148285     
 p           4   1.00000000000000     
   9.58240403549692        1.37296780219284     
   2.48457427772447        1.27052889614703     
  0.875889317934415       0.666458841672068     
  0.348706630431394       0.100543312761176     
 
           3 0
 s           4   1.00000000000000     
   67.8191594740697      -0.201850789245403     
   11.6790204412661      -0.246385510808000     
  0.938459125048083       0.394518855091218     
  0.357670001280168       0.157234426148285     
 p           4   1.00000000000000     
   9.58240403549692        1.37296780219284     
   2.48457427772447        1.27052889614703     
  0.875889317934415       0.666458841672068     
  0.348706630431394       0.100543312761176     
 
           4 0
 s           4   1.00000000000000     
   67.8191594740697      -0.201850789245403     
   11.6790204412661      -0.246385510808000     
  0.938459125048083       0.394518855091218     
  0.357670001280168       0.157234426148285     
 p           4   1.00000000000000     
   9.58240403549692        1.37296780219284     
   2.48457427772447        1.27052889614703     
  0.875889317934415       0.666458841672068     
  0.348706630431394       0.100543312761176     
 
           5 0
 s           4   1.00000000000000     
   67.8191594740697      -0.201850789245403     
   11.6790204412661      -0.246385510808000     
  0.938459125048083       0.394518855091218     
  0.357670001280168       0.157234426148285     
 p           4   1.00000000000000     
   9.58240403549692        1.37296780219284     
   2.48457427772447        1.27052889614703     
  0.875889317934415       0.666458841672068     
  0.348706630431394       0.100543312761176     
 
           6 0
 s           4   1.00000000000000     
   67.8191594740697      -0.201850789245403     
   11.6790204412661      -0.246385510808000     
  0.938459125048083       0.394518855091218     
  0.357670001280168       0.157234426148285     
 p           4   1.00000000000000     
   9.58240403549692        1.37296780219284     
   2.48457427772447        1.27052889614703     
  0.875889317934415       0.666458841672068     
  0.348706630431394       0.100543312761176     
 
[MO]
Sym=     1a
Ene=  -0.970500925835606     
Spin= Alpha
Occup=     2.00000000
           1 -3.698654126444383E-003
           2 -1.862817414074405E-003
           3  5.561471540518788E-003
           4  2.291101601127126E-004
           5  5.142696757618741E-004
           6  4.796666768542754E-003
           7 -0.361510639712844     
           8 -7.032491314414812E-007
           9 -1.868783704662647E-005
          10  3.224616072288893E-007
          11 -0.300163267542681     
          12 -5.453386372509490E-004
          13 -5.062051609730775E-003
          14 -1.132136570635268E-002
          15 -0.300164113976966     
          16  5.451817379241713E-004
          17  5.069293348933159E-003
          18  1.131461172255574E-002
          19 -0.331384675511789     
          20  5.490744866945597E-003
          21 -5.269608748121098E-003
          22  2.094458574881197E-003
          23 -0.331397394536337     
          24  2.154653242191122E-003
          25  6.883561895380622E-003
          26 -3.185112581755124E-003
          27 -0.331386644060471     
          28 -7.645225651382249E-003
          29 -1.616787197311718E-003
          30  1.097162961995790E-003
Sym=     2a
Ene=  -0.902334847761007     
Spin= Alpha
Occup=     2.00000000
           1  1.484450969246256E-002
           2 -1.349501333156223E-002
           3 -1.349496360900330E-003
           4  3.514816734983624E-002
           5 -1.656802069293737E-002
           6  5.279284375319368E-003
           7 -3.488023710163971E-006
           8 -0.171594152574338     
           9  7.240778161519908E-002
          10 -2.368210126970742E-002
          11 -1.152976114169059E-003
          12 -7.284193288836591E-003
          13  3.069359762012927E-003
          14 -1.016167378127816E-003
          15  1.216030895080390E-003
          16 -7.285611512248784E-003
          17  3.068565483231209E-003
          18 -1.016128937900161E-003
          19 -0.673846308788521     
          20 -1.274687411628386E-002
          21  7.573681543909637E-003
          22 -2.753056875074338E-003
          23  0.100204588859556     
          24 -8.432536394431823E-003
          25  4.420945599353472E-003
          26 -1.551223488231197E-003
          27  0.573565476306885     
          28 -1.350768141968095E-002
          29  2.629518573994807E-003
          30 -5.104595237316458E-004
Sym=     3a
Ene=  -0.902329863243910     
Spin= Alpha
Occup=     2.00000000
           1 -3.362428565599686E-002
           2  2.756252257508206E-002
           3  6.061763080914805E-003
           4  1.636829741657242E-002
           5 -5.446866496069798E-003
           6 -1.503139115926403E-002
           7 -9.461162556116823E-006
           8  7.567166577934306E-002
           9  0.155254042630166     
          10 -7.360465557941580E-002
          11  1.282204026290007E-003
          12  3.213041470601250E-003
          13  6.597497723347810E-003
          14 -3.113898872381709E-003
          15 -1.147740615534121E-003
          16  3.214127679897038E-003
          17  6.596746281666781E-003
          18 -3.114496524252277E-003
          19 -0.273353853233235     
          20  2.170957098474301E-003
          21  9.436453164387787E-003
          22 -4.349433931910920E-003
          23  0.720135337085734     
          24  5.541847036698287E-003
          25  1.332980960631706E-002
          26 -6.255448569236298E-003
          27 -0.446951913899828     
          28  7.594521965099993E-003
          29  8.649635925119640E-003
          30 -4.254740420324350E-003
Sym=     4a
Ene=  -0.900453446850226     
Spin= Alpha
Occup=     2.00000000
           1 -9.589392031895829E-005
           2  9.419982160139186E-005
           3  1.694098717566436E-006
           4 -3.651437658491220E-005
           5  2.134008336676232E-005
           6 -3.652303346712425E-005
           7 -5.920050838639134E-006
           8  9.631891200505260E-003
           9  8.504363232633194E-002
          10  0.189519141951184     
          11 -0.622945277269289     
          12  1.831877125206492E-004
          13  1.492692225235603E-003
          14  3.292028748562897E-003
          15  0.622829857125969     
          16  1.834002481248236E-004
          17  1.480290173244081E-003
          18  3.302636784454162E-003
          19  7.863192406591503E-004
          20  4.654161471878125E-004
          21  4.034950174080332E-003
          22  9.003838214119554E-003
          23  1.256466888261659E-003
          24  4.634114510132795E-004
          25  4.052560336284277E-003
          26  8.998530756758509E-003
          27 -1.949343729809616E-003
          28  4.789618741878356E-004
          29  4.044687885009633E-003
          30  8.999524548801551E-003
Sym=     5a
Ene=  -0.863460856454627     
Spin= Alpha
Occup=     2.00000000
           1 -6.522345106365432E-002
           2 -3.282510186868478E-002
           3  9.804855293233909E-002
           4  4.076470177935544E-003
           5  9.131372611182785E-003
           6  8.459744346366303E-002
           7  1.167235950147968E-002
           8  1.002110361270811E-006
           9 -4.695387284130171E-006
          10  2.037008316901040E-005
          11  0.516165878284694     
          12 -8.184263065809206E-004
          13 -7.567021786145125E-003
          14 -1.689387318878456E-002
          15  0.516302890271677     
          16  8.188050529010846E-004
          17  7.564101217774569E-003
          18  1.690414794271598E-002
          19 -0.330825942167039     
          20 -1.213618782947645E-002
          21  1.165193269008160E-002
          22 -4.628143712329706E-003
          23 -0.331041395632147     
          24 -4.774142976002531E-003
          25 -1.524873905427176E-002
          26  7.057132837849429E-003
          27 -0.330889914551681     
          28  1.691070357651574E-002
          29  3.584780353118135E-003
          30 -2.415830475457160E-003
Sym=     6a
Ene=  -0.611962610106120     
Spin= Alpha
Occup=     2.00000000
           1  1.290196689151989E-002
           2  0.253718366319876     
           3 -0.266620333211396     
           4  8.451294673029505E-002
           5  0.146329167326595     
           6  0.258402130891337     
           7  1.315094940668363E-005
           8 -2.591493332873330E-005
           9  1.747846091852146E-005
          10 -4.391284630058823E-005
          11  2.395710404641008E-005
          12 -0.136182648138764     
          13 -0.289969516885818     
          14  0.136197841352965     
          15 -1.116592063049359E-005
          16  0.136152090902457     
          17  0.289875590882619     
          18 -0.136441937868216     
          19 -1.151259828653457E-005
          20 -7.728063731570540E-003
          21 -7.133224535870876E-002
          22 -0.159621671500180     
          23  6.798928581628294E-006
          24  1.962272820334684E-002
          25  0.182728731720237     
          26  0.407981679671023     
          27  9.648045639242861E-006
          28 -1.215431449228391E-002
          29 -0.111078441661012     
          30 -0.248588288715765     
Sym=     7a
Ene=  -0.611962092067307     
Spin= Alpha
Occup=     2.00000000
           1  3.016471078185851E-002
           2 -0.113885408419507     
           3  8.372069763764865E-002
           4  0.154664682939459     
           5  0.363581723109287     
           6 -0.125343183461358     
           7  1.320451352207155E-005
           8 -2.187212808096065E-005
           9 -2.023312476614268E-005
          10  2.640554746278740E-005
          11 -7.296734283897295E-007
          12 -0.319989627203337     
          13  0.130158111833448     
          14 -4.278169797189317E-002
          15  1.356089675802799E-005
          16  0.319972307261699     
          17 -0.130126409986964     
          18  4.289032449730745E-002
          19 -2.590202228466651E-007
          20  1.823563401559175E-002
          21  0.169623824472563     
          22  0.379125858208672     
          23 -1.008225838785911E-005
          24 -2.513670633054278E-003
          25 -2.304947336206592E-002
          26 -5.131034353976091E-002
          27  1.530043561002031E-005
          28 -1.594501685484877E-002
          29 -0.146846854241614     
          30 -0.327633147320237     
Sym=     8a
Ene=  -0.608598620457895     
Spin= Alpha
Occup=     2.00000000
           1  0.139851143005393     
           2 -0.126253186726077     
           3 -1.359795627931603E-002
           4  0.305511578914825     
           5 -0.144512270010075     
           6  5.060458003541574E-002
           7  1.595875256095489E-006
           8  0.113989652712051     
           9 -4.426814323457484E-002
          10  1.430918791530370E-002
          11 -4.525105159589554E-006
          12  0.109442018392927     
          13 -4.257587943185323E-002
          14  1.377355086562894E-002
          15  1.492645577437570E-006
          16  0.109462312402256     
          17 -4.244609698103900E-002
          18  1.370208144053197E-002
          19  2.250915170371860E-002
          20  0.350053366106932     
          21 -4.131748962333145E-002
          22  1.541645537631807E-003
          23 -2.647385336416415E-003
          24  0.523081907018017     
          25 -0.175627768817497     
          26  5.348803703070631E-002
          27 -1.984937378438616E-002
          28  0.312115851399425     
          29 -0.243369481240024     
          30  9.370203498954245E-002
Sym=     9a
Ene=  -0.608596659120694     
Spin= Alpha
Occup=     2.00000000
           1 -0.292340128059701     
           2  0.239377576055772     
           3  5.296255200392887E-002
           4  0.153594868814590     
           5 -5.251305563429615E-002
           6 -0.130999933717438     
           7  6.627836255381743E-006
           8 -4.620357129957074E-002
           9 -0.103306259894161     
          10  4.847555826330698E-002
          11 -2.248066602909397E-006
          12 -4.428557017673720E-002
          13 -9.919530844779532E-002
          14  4.656617092590560E-002
          15 -8.058283072051777E-006
          16 -4.435600332114701E-002
          17 -9.901258799332149E-002
          18  4.644845398621875E-002
          19  9.942867059067722E-003
          20 -0.281992315037668     
          21 -0.397212926610052     
          22  0.191251798251177     
          23 -2.445282406665102E-002
          24 -0.138253728699895     
          25 -0.241394043847984     
          26  0.114881688529480     
          27  1.453650237326342E-002
          28 -6.022647384489038E-002
          29 -0.435650388557588     
          30  0.198013167552839     
Sym=    10a
Ene=  -0.601001669405917     
Spin= Alpha
Occup=     2.00000000
           1 -2.875383676104262E-002
           2 -1.448411657202754E-002
           3  4.323795333307016E-002
           4  1.776759031250736E-003
           5  4.005595157872450E-003
           6  3.729630858065582E-002
           7 -0.120172914416992     
           8 -3.556982661187848E-007
           9  1.891236703747023E-005
          10  6.426109852798428E-007
          11  8.834835609724254E-002
          12 -1.391715572561373E-002
          13 -0.129127385369440     
          14 -0.288574363983852     
          15  8.833733794916389E-002
          16  1.391289059648739E-002
          17  0.129182191045058     
          18  0.288527733769190     
          19  0.108071937021637     
          20  0.332726388066030     
          21 -0.319372121810570     
          22  0.126901350288455     
          23  0.108058297138553     
          24  0.130701925481546     
          25  0.417540127872305     
          26 -0.193224585452051     
          27  0.108068232909164     
          28 -0.463426027931387     
          29 -9.807650736995405E-002
          30  6.640860757392400E-002
Sym=    11a
Ene=  -0.586677517983076     
Spin= Alpha
Occup=     2.00000000
           1 -1.558934865829035E-005
           2  4.019278175350553E-005
           3 -2.460343309521518E-005
           4 -1.541383016219127E-005
           5  6.881845613595467E-006
           6 -4.959759885307482E-005
           7  1.718836670219711E-006
           8 -2.520566454410577E-003
           9 -2.365682882318940E-002
          10 -5.288169652346261E-002
          11 -7.814935014612476E-002
          12  1.425412208249671E-002
          13  0.129016486609510     
          14  0.287805372582585     
          15  7.819805003767218E-002
          16  1.426604019421229E-002
          17  0.129030328156039     
          18  0.287975791955266     
          19 -2.925302151563559E-005
          20 -2.206754777919560E-002
          21 -0.204082554017829     
          22 -0.456683972659498     
          23 -4.275155936845849E-005
          24 -2.197935146323017E-002
          25 -0.204675329309108     
          26 -0.456210828455048     
          27  4.995744416387041E-005
          28 -2.269139143101353E-002
          29 -0.204454560568019     
          30 -0.456428079087761     
Sym=    12a
Ene=  -0.585082971092896     
Spin= Alpha
Occup=     2.00000000
           1  1.217459151550613E-002
           2 -1.169573339360016E-002
           3 -4.788581219059698E-004
           4  4.942413613632026E-002
           5 -2.278592896282678E-002
           6  3.671983089336730E-003
           7  1.033251724677933E-007
           8 -3.721311931932268E-002
           9  2.284525348445997E-002
          10 -8.473817534211281E-003
          11 -5.212046118920005E-005
          12 -0.290480568618732     
          13  0.178540643931802     
          14 -6.565540128153520E-002
          15  4.351917628204328E-005
          16 -0.290402785879067     
          17  0.178466580722918     
          18 -6.579496110353689E-002
          19  6.024846045995609E-002
          20  0.385046764860421     
          21 -0.450090056330206     
          22  0.182560964841276     
          23 -1.832896085745191E-002
          24 -0.305889588552101     
          25 -9.311022397792708E-002
          26  5.614300179386954E-002
          27 -4.192580171893804E-002
          28  0.366113951419407     
          29  0.269273205235644     
          30 -0.138625043539368     
Sym=    13a
Ene=  -0.585082734161094     
Spin= Alpha
Occup=     2.00000000
           1 -4.709790805568691E-002
           2  3.890569660443411E-002
           3  8.192211451252806E-003
           4  1.382362841402443E-002
           5 -3.582297182572780E-003
           6 -2.077049509224433E-002
           7 -9.046647400035887E-007
           8  2.429311958873554E-002
           9  3.358738546276570E-002
          10 -1.614392491542769E-002
          11  6.401949334279641E-005
          12  0.189641139726387     
          13  0.261977183471449     
          14 -0.126526458502094     
          15 -7.250305189233611E-005
          16  0.189560883962934     
          17  0.261854987076936     
          18 -0.126701415512927     
          19  1.362963580514048E-002
          20  0.291187731667593     
          21  7.558095146768813E-002
          22 -4.744420984784814E-002
          23 -5.901008772064210E-002
          24 -8.593824222757246E-002
          25 -0.548917314888393     
          26  0.250335233304686     
          27  4.537188625510945E-002
          28 -0.495782937968587     
          29  7.243423411066446E-002
          30 -7.927994157843255E-003
Sym=    14a
Ene=  -0.581197537589062     
Spin= Alpha
Occup=     2.00000000
           1 -0.133737068467230     
           2 -6.730743354260393E-002
           3  0.201044502009834     
           4  8.364710103005520E-003
           5  1.875410064257187E-002
           6  0.173482490953537     
           7  2.016853041789893E-003
           8  6.587815723231084E-007
           9 -1.548246613992626E-005
          10  1.215111750033636E-005
          11 -0.110402299438039     
          12  2.461268054052652E-002
          13  0.228960513550466     
          14  0.512418365519225     
          15 -0.110404571014170     
          16 -2.458751873283733E-002
          17 -0.229396481488037     
          18 -0.511806178347318     
          19  3.892134485208253E-002
          20  0.165956811601903     
          21 -0.159192700203847     
          22  6.318786534258464E-002
          23  3.897081324814437E-002
          24  6.512782074608571E-002
          25  0.208149211366177     
          26 -9.641127197002128E-002
          27  3.893645933592726E-002
          28 -0.231088946268752     
          29 -4.874834563618655E-002
          30  3.313647249438520E-002
Sym=    15a
Ene=  -0.577831405345596     
Spin= Alpha
Occup=     2.00000000
           1 -2.534864751874745E-005
           2  2.296565614066216E-005
           3  2.382991378085285E-006
           4 -2.296346676116691E-005
           5  1.093423127743246E-005
           6 -9.005088713560048E-006
           7  1.249429702233333E-010
           8 -2.460860759442569E-005
           9 -1.001953680537897E-007
          10  1.230199266266799E-006
          11 -2.249206552752675E-009
          12 -1.269585807984217E-004
          13 -3.775127500200042E-006
          14  7.833088367969103E-006
          15  3.109268155939749E-009
          16 -1.281904950837395E-004
          17 -6.207634338170739E-007
          18  6.488755905772068E-006
          19  9.640773178642771E-006
          20  0.414837424366664     
          21  0.360100044714584     
          22 -0.181277510911225     
          23  4.097065656416371E-006
          24 -0.555919529033122     
          25  0.154490402558981     
          26 -4.226203350858736E-002
          27 -1.373822151307155E-005
          28  0.140999535419593     
          29 -0.514583179774292     
          30  0.223540237966208     
Sym=    16a
Ene=  -0.566646697708479     
Spin= Alpha
Occup=     2.00000000
           1 -1.315159678458552E-002
           2  1.194245539222553E-002
           3  1.209141392359990E-003
           4 -3.098643048295720E-002
           5  1.476736183830944E-002
           6 -4.644388254426227E-003
           7 -4.119567445454208E-006
           8 -3.641234795290185E-002
           9  1.531170886455974E-002
          10 -5.054010465920395E-003
          11  3.534019222129618E-005
          12 -0.538595036239498     
          13  0.226182872328553     
          14 -7.444273105421692E-002
          15 -5.129192047409612E-005
          16 -0.536776892952034     
          17  0.226061702803763     
          18 -7.474170933597431E-002
          19  4.127570757176851E-002
          20 -9.148315880619558E-002
          21  0.263831413016962     
          22 -0.114347138565349     
          23 -6.101353959062469E-003
          24  0.351020810617138     
          25 -5.960208258686325E-002
          26  9.630589630163963E-003
          27 -3.516401159186296E-002
          28 -0.169595125747150     
          29 -0.241727415925880     
          30  0.117901108282148     
Sym=    17a
Ene=  -0.566645458970779     
Spin= Alpha
Occup=     2.00000000
           1  2.968851264523792E-002
           2 -2.442155158328333E-002
           3 -5.266961061954584E-003
           4 -1.454407330866990E-002
           5  4.755357304388731E-003
           6  1.333751643475302E-002
           7 -9.200668739432386E-006
           8  1.602936494572462E-002
           9  3.297659412137718E-002
          10 -1.557775603329696E-002
          11 -6.229905198123423E-005
          12  0.237172785093389     
          13  0.487157142668576     
          14 -0.229893537923192     
          15  2.627583760480638E-005
          16  0.236036104815331     
          17  0.486338901883946     
          18 -0.230072705337946     
          19  1.678894810892844E-002
          20 -0.313581979423122     
          21 -0.132660567064622     
          22  7.445579509532575E-002
          23 -4.413110055085202E-002
          24  3.199105712420923E-002
          25  0.265660915873632     
          26 -0.120013697304567     
          27  2.736436681193108E-002
          28  0.242118981077771     
          29 -0.214466849158605     
          30  8.317121725961270E-002
Sym=    18a
Ene=  -0.564274885426373     
Spin= Alpha
Occup=     2.00000000
           1  9.818632299384774E-005
           2  4.680653223595658E-004
           3 -5.662516453534135E-004
           4  4.733864842103798E-005
           5 -4.656159259837385E-005
           6  5.036732621038964E-004
           7 -8.841472752967836E-008
           8  2.095431935703407E-003
           9  1.896279416369830E-002
          10  4.231151035439513E-002
          11  5.771838851698568E-002
          12  2.865429639140093E-002
          13  0.253439211404096     
          14  0.579228289576129     
          15 -5.767663451440931E-002
          16  2.847215897536195E-002
          17  0.263791747952494     
          18  0.574891405459998     
          19 -2.988396500336246E-005
          20  1.169267252814964E-002
          21  0.110353284410263     
          22  0.247513221874348     
          23 -4.451065017766592E-005
          24  1.114996466188958E-002
          25  0.106567205683898     
          26  0.237266410531358     
          27  5.277259381777918E-005
          28  1.235824320095172E-002
          29  0.109438458216372     
          30  0.244317817127819     
Sym=    19a
Ene=  -0.563892807323547     
Spin= Alpha
Occup=     2.00000000
           1 -5.179542877375152E-003
           2  2.022597919916539E-002
           3 -1.504643632179023E-002
           4 -2.606287344359157E-002
           5 -6.131540820432324E-002
           6  2.213183373156688E-002
           7 -3.176379718120679E-006
           8 -9.421072814971001E-005
           9 -9.163293681578533E-005
          10 -1.996746622850013E-004
          11 -2.861142573422806E-004
          12  0.447684884588107     
          13 -0.192957834530351     
          14  6.161871567371216E-002
          15  2.743082271346443E-004
          16 -0.450227575774304     
          17  0.190585967881338     
          18 -6.693266780758199E-002
          19  6.911551654193350E-005
          20  2.456191855424790E-002
          21  0.227235841476872     
          22  0.506255296884250     
          23  3.018832901964979E-005
          24 -3.298531017653083E-003
          25 -3.590192672145497E-002
          26 -7.952581520025463E-002
          27 -9.711194713104972E-005
          28 -2.137401022952236E-002
          29 -0.192953708632135     
          30 -0.430217317835600     
Sym=    20a
Ene=  -0.563883686955656     
Spin= Alpha
Occup=     2.00000000
           1 -2.353664485767382E-003
           2 -4.272519855864949E-002
           3  4.507886304441688E-002
           4 -1.489382383024555E-002
           5 -2.601303488197569E-002
           6 -4.350481897563145E-002
           7 -3.280350347345789E-006
           8 -3.100806535782246E-005
           9  1.694384155046379E-004
          10  4.487342684048812E-004
          11  5.921021770157942E-004
          12  0.200699879891170     
          13  0.408751574952559     
          14 -0.185615730853127     
          15 -6.036831284046137E-004
          16 -0.201527139094229     
          17 -0.404354861258402     
          18  0.197545502902979     
          19  1.884330317375643E-005
          20 -9.380072507930600E-003
          21 -8.922108311896268E-002
          22 -0.200152908303375     
          23  5.084203637388479E-005
          24  2.648508573032532E-002
          25  0.242964602153624     
          26  0.543514146310202     
          27 -6.774895601615292E-005
          28 -1.672797095504835E-002
          29 -0.150308575641376     
          30 -0.335921997711317     
Sym=    21a
Ene=  -0.423404076171880     
Spin= Alpha
Occup=     0.00000000
           1 -2.987882922653632E-002
           2 -0.584595112884440     
           3  0.614473942110977     
           4 -0.196017141623976     
           5 -0.338983098911514     
           6 -0.595333461193383     
           7 -4.218275320996674E-005
           8 -1.163589706826247E-005
           9  4.178845322321509E-005
          10  4.293066183156007E-005
          11 -5.529600653309956E-005
          12 -0.170192894102115     
          13 -0.360390255665163     
          14  0.169344036935816     
          15  6.519221764893854E-005
          16  0.170186189461443     
          17  0.360246946614171     
          18 -0.169647414361602     
          19 -2.802460461684758E-005
          20 -6.584353120471694E-003
          21 -6.172352785633647E-002
          22 -0.137857378736820     
          23  1.630388976410979E-005
          24  1.718620442621680E-002
          25  0.158442395052574     
          26  0.354077991594656     
          27  2.344746925233456E-005
          28 -1.044304182613408E-002
          29 -9.683750680874627E-002
          30 -0.216295203910937     
Sym=    22a
Ene=  -0.423397545610945     
Spin= Alpha
Occup=     0.00000000
           1  6.985418622745466E-002
           2 -0.264114785699627     
           3  0.194260599472173     
           4  0.356252256214013     
           5  0.837799573807109     
           6 -0.290107167401658     
           7  4.216421958493515E-005
           8  1.357681819461157E-005
           9  2.554058351305309E-005
          10  1.408969607578172E-005
          11 -3.100332125483492E-005
          12  0.397736940321535     
          13 -0.162681920735014     
          14  5.354562529261579E-002
          15  2.110971971168981E-005
          16 -0.397752319030230     
          17  0.162616571089514     
          18 -5.367424948494733E-002
          19  7.274521714820192E-007
          20 -1.599454782182615E-002
          21 -0.147495273549984     
          22 -0.329290541795052     
          23  2.460468697048657E-005
          24  2.082619475881615E-003
          25  2.024676501473039E-002
          26  4.528919695274479E-002
          27 -3.705610767731291E-005
          28  1.370284806260214E-002
          29  0.127133417878736     
          30  0.284009621114298     
Sym=    23a
Ene=  -0.370851456255699     
Spin= Alpha
Occup=     0.00000000
           1 -0.427160808959818     
           2  0.382330215998693     
           3  4.483059296112504E-002
           4 -0.819014789409545     
           5  0.390740080162181     