      -----------------------------------------------------------      
     |                   =====================                   |     
     |                           x T B                           |     
     |                   =====================                   |     
     |                         S. Grimme                         |     
     |          Mulliken Center for Theoretical Chemistry        |     
     |                    University of Bonn                     |     
      -----------------------------------------------------------      

   * xtb version 6.5.0 (746241f) compiled by 'ehlert@majestix' on 2022-05-15

   xtb is free software: you can redistribute it and/or modify it under
   the terms of the GNU Lesser General Public License as published by
   the Free Software Foundation, either version 3 of the License, or
   (at your option) any later version.
   
   xtb is distributed in the hope that it will be useful,
   but WITHOUT ANY WARRANTY; without even the implied warranty of
   MERCHANTABILITY or FITNESS FOR A PARTICULAR PURPOSE.  See the
   GNU Lesser General Public License for more details.
   
   Cite this work as:
   * C. Bannwarth, E. Caldeweyher, S. Ehlert, A. Hansen, P. Pracht,
     J. Seibert, S. Spicher, S. Grimme, WIREs Comput. Mol. Sci., 2020, 11,
     e01493. DOI: 10.1002/wcms.1493
   
   for GFN2-xTB:
   * C. Bannwarth, S. Ehlert and S. Grimme., J. Chem. Theory Comput., 2019,
     15, 1652-1671. DOI: 10.1021/acs.jctc.8b01176
   for GFN1-xTB:
   * S. Grimme, C. Bannwarth, P. Shushkov, J. Chem. Theory Comput., 2017,
     13, 1989-2009. DOI: 10.1021/acs.jctc.7b00118
   for GFN0-xTB:
   * P. Pracht, E. Caldeweyher, S. Ehlert, S. Grimme, ChemRxiv, 2019, preprint.
     DOI: 10.26434/chemrxiv.8326202.v1
   for GFN-FF:
   * S. Spicher and S. Grimme, Angew. Chem. Int. Ed., 2020, 59, 15665-15673.
     DOI: 10.1002/anie.202004239
   
   for ALPB and GBSA implicit solvation:
   * S. Ehlert, M. Stahn, S. Spicher, S. Grimme, J. Chem. Theory Comput.,
     2021, 17, 4250-4261. DOI: 10.1021/acs.jctc.1c00471
   
   for DFT-D4:
   * E. Caldeweyher, C. Bannwarth and S. Grimme, J. Chem. Phys., 2017,
     147, 034112. DOI: 10.1063/1.4993215
   * E. Caldeweyher, S. Ehlert, A. Hansen, H. Neugebauer, S. Spicher,
     C. Bannwarth and S. Grimme, J. Chem. Phys., 2019, 150, 154122.
     DOI: 10.1063/1.5090222
   * E. Caldeweyher, J.-M. Mewes, S. Ehlert and S. Grimme, Phys. Chem. Chem. Phys.
     2020, 22, 8499-8512. DOI: 10.1039/D0CP00502A
   
   for sTDA-xTB:
   * S. Grimme and C. Bannwarth, J. Chem. Phys., 2016, 145, 054103.
     DOI: 10.1063/1.4959605
   
   in the mass-spec context:
   * V. Asgeirsson, C. Bauer and S. Grimme, Chem. Sci., 2017, 8, 4879.
     DOI: 10.1039/c7sc00601b
   * J. Koopman and S. Grimme, ACS Omega 2019, 4, 12, 15120-15133.
     DOI: 10.1021/acsomega.9b02011
   
   for metadynamics refer to:
   * S. Grimme, J. Chem. Theory Comput., 2019, 155, 2847-2862
     DOI: 10.1021/acs.jctc.9b00143
   
   for SPH calculations refer to:
   * S. Spicher and S. Grimme, J. Chem. Theory Comput., 2021, 17, 1701-1714
     DOI: 10.1021/acs.jctc.0c01306
   
   with help from (in alphabetical order)
   P. Atkinson, C. Bannwarth, F. Bohle, G. Brandenburg, E. Caldeweyher
   M. Checinski, S. Dohm, S. Ehlert, S. Ehrlich, I. Gerasimov, C. Hölzer
   A. Katbashev, J. Koopman, C. Lavigne, S. Lehtola, F. März, M. Müller,
   F. Musil, H. Neugebauer, J. Pisarek, C. Plett, P. Pracht, F. Pultar,
   J. Seibert, P. Shushkov, S. Spicher, M. Stahn, M. Steiner, T. Strunk,
   J. Stückrath, T. Rose, and J. Unsleber
   
 * started run on 2022/07/20 at 16:38:38.969     

           -------------------------------------------------
          |                Calculation Setup                |
           -------------------------------------------------

          program call               : xtb -c 0 -u 0 --opt --molden tb.xyz
          coordinate file            : tb.xyz
          omp threads                :                    16

   ID    Z sym.   atoms
    1   23 V      1
    2    9 F      2-6

           -------------------------------------------------
          |                 G F N 2 - x T B                 |
           -------------------------------------------------

        Reference                      10.1021/acs.jctc.8b01176
      * Hamiltonian:
        H0-scaling (s, p, d)           1.850000    2.230000    2.230000
        zeta-weighting                 0.500000
      * Dispersion:
        s8                             2.700000
        a1                             0.520000
        a2                             5.000000
        s9                             5.000000
      * Repulsion:
        kExp                           1.500000    1.000000
        rExp                           1.000000
      * Coulomb:
        alpha                          2.000000
        third order                    shell-resolved
        anisotropic                    true
        a3                             3.000000
        a5                             4.000000
        cn-shift                       1.200000
        cn-exp                         4.000000
        max-rad                        5.000000


          ...................................................
          :                      SETUP                      :
          :.................................................:
          :  # basis functions                  30          :
          :  # atomic orbitals                  29          :
          :  # shells                           13          :
          :  # electrons                        40          :
          :  max. iterations                   250          :
          :  Hamiltonian                  GFN2-xTB          :
          :  restarted?                      false          :
          :  GBSA solvation                  false          :
          :  PC potential                    false          :
          :  electronic temp.          300.0000000     K    :
          :  accuracy                    1.0000000          :
          :  -> integral cutoff          0.2500000E+02      :
          :  -> integral neglect         0.1000000E-07      :
          :  -> SCF convergence          0.1000000E-05 Eh   :
          :  -> wf. convergence          0.1000000E-03 e    :
          :  Broyden damping             0.4000000          :
          ...................................................

 iter      E             dE          RMSdq      gap      omega  full diag
   1    -20.6911512 -0.206912E+02  0.261E+01    0.58       0.0  T
   2    -22.2465980 -0.155545E+01  0.235E+01   17.77       1.0  T
   3    -23.6347451 -0.138815E+01  0.173E+01    7.72       1.0  T
   4    -23.8750177 -0.240273E+00  0.163E+01    6.63       1.0  T
   5    -24.8405013 -0.965484E+00  0.911E+00    3.89       1.0  T
   6    -17.5631084  0.727739E+01  0.375E+01    0.46       1.0  T
   7    -18.1600472 -0.596939E+00  0.361E+01    0.49       1.0  T
   8    -21.6407720 -0.348072E+01  0.251E+01    0.61       1.0  T
   9    -21.7032736 -0.625016E-01  0.241E+01    0.61       1.0  T
  10    -25.6703859 -0.396711E+01  0.392E+00    1.49       1.0  T
  11    -24.6532695  0.101712E+01  0.120E+01    4.36       1.0  T
  12    -24.7134861 -0.602166E-01  0.117E+01    4.19       1.0  T
  13    -25.2749411 -0.561455E+00  0.798E+00    2.96       1.0  T
  14    -25.3572889 -0.823478E-01  0.728E+00    2.80       1.0  T
  15    -25.7367845 -0.379496E+00  0.239E+00    1.92       1.0  T
  16    -25.7268578  0.992671E-02  0.201E+00    2.02       1.0  T
  17    -25.7201233  0.673449E-02  0.222E+00    2.05       1.0  T
  18    -25.7522090 -0.320857E-01  0.918E-01    1.84       1.0  T
  19    -25.7456121  0.659688E-02  0.122E+00    1.93       1.0  T
  20    -25.7512985 -0.568638E-02  0.641E-01    1.89       1.0  T
  21    -25.7519236 -0.625094E-03  0.590E-01    1.84       1.0  T
  22    -25.7499599  0.196367E-02  0.580E-01    1.93       1.0  T
  23    -25.7523222 -0.236232E-02  0.288E-01    1.87       1.0  T
  24    -25.7505312  0.179103E-02  0.482E-01    1.93       1.0  T
  25    -25.7516501 -0.111884E-02  0.315E-01    1.91       1.0  T
  26    -25.7507086  0.941421E-03  0.458E-01    1.93       1.0  T
  27    -25.7512671 -0.558439E-03  0.378E-01    1.92       1.0  T
  28    -25.7515141 -0.247000E-03  0.337E-01    1.91       1.0  T
  29    -25.7518286 -0.314508E-03  0.274E-01    1.90       1.0  T
  30    -25.7522027 -0.374132E-03  0.174E-01    1.89       1.0  T
  31    -25.7522548 -0.520459E-04  0.155E-01    1.89       1.0  T
  32    -25.7524022 -0.147420E-03  0.798E-02    1.87       1.0  T
  33    -25.7524561 -0.539162E-04  0.658E-03    1.86       6.2  T
  34    -25.7524554  0.712533E-06  0.106E-02    1.86       3.8  T
  35    -25.7524559 -0.543908E-06  0.674E-03    1.86       6.1  T
  36    -25.7524563 -0.334248E-06  0.173E-03    1.86      23.6  T
  37    -25.7524563 -0.171693E-07  0.723E-04    1.86      56.4  T
  38    -25.7524563 -0.434593E-08  0.176E-04    1.86     231.4  T

   *** convergence criteria satisfied after 38 iterations ***

         #    Occupation            Energy/Eh            Energy/eV
      -------------------------------------------------------------
         1        2.0000           -0.9442094             -25.6932
       ...           ...                  ...                  ...
        14        2.0000           -0.5749734             -15.6458
        15        2.0000           -0.5698560             -15.5066
        16        2.0000           -0.5617964             -15.2873
        17        2.0000           -0.5617937             -15.2872
        18        2.0000           -0.5613984             -15.2764
        19        2.0000           -0.5613979             -15.2764
        20        2.0000           -0.5600849             -15.2407 (HOMO)
        21                         -0.4916713             -13.3791 (LUMO)
        22                         -0.4916636             -13.3788
        23                         -0.4635484             -12.6138
        24                         -0.4635249             -12.6132
        25                         -0.3548413              -9.6557
       ...                                ...                  ...
        29                          0.4793730              13.0444
      -------------------------------------------------------------
                  HL-Gap            0.0684135 Eh            1.8616 eV
             Fermi-level           -0.5258781 Eh          -14.3099 eV

 SCC (total)                   0 d,  0 h,  0 min,  0.008 sec
 SCC setup                      ...        0 min,  0.000 sec (  1.157%)
 Dispersion                     ...        0 min,  0.000 sec (  0.623%)
 classical contributions        ...        0 min,  0.000 sec (  0.110%)
 integral evaluation            ...        0 min,  0.000 sec (  4.580%)
 iterations                     ...        0 min,  0.007 sec ( 84.324%)
 molecular gradient             ...        0 min,  0.001 sec (  8.035%)
 printout                       ...        0 min,  0.000 sec (  1.006%)

         :::::::::::::::::::::::::::::::::::::::::::::::::::::
         ::                     SUMMARY                     ::
         :::::::::::::::::::::::::::::::::::::::::::::::::::::
         :: total energy             -25.747844139773 Eh    ::
         :: gradient norm              0.112219932025 Eh/a0 ::
         :: HOMO-LUMO gap              1.861626835473 eV    ::
         ::.................................................::
         :: SCC energy               -25.752456278617 Eh    ::
         :: -> isotropic ES            0.070921070137 Eh    ::
         :: -> anisotropic ES         -0.000176607169 Eh    ::
         :: -> anisotropic XC         -0.000056519197 Eh    ::
         :: -> dispersion             -0.002411808101 Eh    ::
         :: repulsion energy           0.004610936555 Eh    ::
         :: add. restraining           0.000000000000 Eh    ::
         :: total charge               0.000000000000 e     ::
         :::::::::::::::::::::::::::::::::::::::::::::::::::::

      ----------------------------------------------------------- 
     |                   =====================                   |
     |                        A N C O P T                        |
     |                   =====================                   |
     |               Approximate Normal Coordinate               |
     |                Rational Function Optimizer                |
      ----------------------------------------------------------- 

          ...................................................
          :                      SETUP                      :
          :.................................................:
          :   optimization level            normal          :
          :   max. optcycles                   200          :
          :   ANC micro-cycles                  20          :
          :   degrees of freedom                12          :
          :.................................................:
          :   RF solver                   davidson          :
          :   write xtbopt.log                true          :
          :   linear?                        false          :
          :   energy convergence         0.5000000E-05 Eh   :
          :   grad. convergence          0.1000000E-02 Eh/α :
          :   maximium RF displ.         1.0000000          :
          :   Hlow (freq-cutoff)         0.1000000E-01      :
          :   Hmax (freq-cutoff)         5.0000000          :
          :   S6 in model hess.         20.0000000          :
          ...................................................

generating ANC from model Hessian ...
Using Lindh-Hessian (1995)
 Shifting diagonal of input Hessian by   9.741564319937987E-004
 Lowest  eigenvalues of input Hessian
    0.000000    0.000000    0.000000    0.000000    0.000000    0.000000
    0.010000    0.013571    0.019454    0.019461    0.021870    0.024295
    0.033989    0.253113    0.260341    0.649818    0.659988    0.773891
 Highest eigenvalues
    0.033989    0.253113    0.260341    0.649818    0.659988    0.773891
 

........................................................................
.............................. CYCLE    1 ..............................
........................................................................
   1    -25.7524563 -0.257525E+02  0.206E-04    1.86       0.0  T
   2    -25.7524563  0.700883E-08  0.949E-04    1.86      43.0  T
   3    -25.7524563 -0.735266E-08  0.830E-05    1.86     491.7  T
     SCC iter.                  ...        0 min,  0.001 sec
     gradient                   ...        0 min,  0.001 sec
 * total energy  :   -25.7478441 Eh     change       -0.2045333E-09 Eh
   gradient norm :     0.1122195 Eh/α   predicted     0.0000000E+00 (-100.00%)
   displ. norm   :     0.3716729 α      lambda       -0.4170872E-01
   maximum displ.:     0.3685527 α      in ANC's #9, #8, #6, ...

........................................................................
.............................. CYCLE    2 ..............................
........................................................................
   1    -25.7942828 -0.257943E+02  0.671E-01    2.41       0.0  T
   2    -25.7587711  0.355116E-01  0.216E+00    2.09       1.0  T
   3    -25.7966246 -0.378534E-01  0.240E-01    2.36       1.0  T
   4    -25.7969677 -0.343157E-03  0.716E-02    2.34       1.0  T
   5    -25.7969704 -0.270377E-05  0.147E-02    2.33       2.8  T
   6    -25.7969705 -0.503005E-07  0.334E-03    2.33      12.2  T
   7    -25.7969705 -0.244375E-07  0.141E-03    2.33      29.0  T
   8    -25.7969705 -0.100113E-08  0.451E-04    2.33      90.4  T
   9    -25.7969705 -0.343498E-09  0.350E-04    2.33     116.8  T
     SCC iter.                  ...        0 min,  0.002 sec
     gradient                   ...        0 min,  0.000 sec
 * total energy  :   -25.7871936 Eh     change       -0.3934951E-01 Eh
   gradient norm :     0.0977894 Eh/α   predicted    -0.2373520E-01 ( -39.68%)
   displ. norm   :     0.8210600 α      lambda       -0.8029092E-01
   maximum displ.:     0.8156130 α      in ANC's #9, #8, #6, ...

........................................................................
.............................. CYCLE    3 ..............................
........................................................................
   1    -25.8773470 -0.258773E+02  0.122E+00    4.06       0.0  T
   2    -25.8539085  0.234385E-01  0.207E+00    3.58       1.0  T
   3    -25.8837254 -0.298170E-01  0.441E-01    3.92       1.0  T
   4    -25.8839803 -0.254884E-03  0.295E-02    3.88       1.4  T
   5    -25.8839818 -0.143122E-05  0.131E-02    3.89       3.1  T
   6    -25.8839818 -0.181586E-07  0.585E-03    3.89       7.0  T
   7    -25.8839818 -0.264917E-07  0.112E-03    3.89      36.3  T
   8    -25.8839818 -0.406927E-08  0.433E-04    3.89      94.3  T
   9    -25.8839818 -0.946734E-09  0.425E-05    3.89     961.2  T
     SCC iter.                  ...        0 min,  0.002 sec
     gradient                   ...        0 min,  0.001 sec
 * total energy  :   -25.8350997 Eh     change       -0.4790602E-01 Eh
   gradient norm :     0.0056422 Eh/α   predicted    -0.6720909E-01 (  40.29%)
   displ. norm   :     0.0438336 α      lambda       -0.2456034E-03
   maximum displ.:     0.0438298 α      in ANC's #9, #8, #2, ...

........................................................................
.............................. CYCLE    4 ..............................
........................................................................
   1    -25.8800462 -0.258800E+02  0.785E-02    3.77       0.0  T
   2    -25.8799518  0.943852E-04  0.142E-01    3.80       1.0  T
   3    -25.8800735 -0.121758E-03  0.569E-02    3.78       1.0  T
   4    -25.8800736 -0.164738E-07  0.478E-02    3.78       1.0  T
   5    -25.8800741 -0.525303E-06  0.210E-03    3.78      19.4  T
   6    -25.8800741 -0.312539E-08  0.101E-03    3.78      40.4  T
   7    -25.8800741 -0.384986E-09  0.128E-04    3.78     318.5  T
   8    -25.8800741 -0.322231E-11  0.558E-05    3.78     731.3  T
     SCC iter.                  ...        0 min,  0.001 sec
     gradient                   ...        0 min,  0.001 sec
 * total energy  :   -25.8351214 Eh     change       -0.2168945E-04 Eh
   gradient norm :     0.0045343 Eh/α   predicted    -0.1230373E-03 ( 467.27%)
   displ. norm   :     0.0196624 α      lambda       -0.8911612E-04
   maximum displ.:     0.0194437 α      in ANC's #9, #8, #5, ...

........................................................................
.............................. CYCLE    5 ..............................
........................................................................
   1    -25.8818423 -0.258818E+02  0.335E-02    3.83       0.0  T
   2    -25.8818230  0.193900E-04  0.595E-02    3.81       1.0  T
   3    -25.8818480 -0.250098E-04  0.979E-03    3.82       4.2  T
   4    -25.8818480 -0.468063E-07  0.137E-03    3.82      29.8  T
   5    -25.8818480 -0.592280E-09  0.509E-04    3.82      80.2  T
   6    -25.8818480 -0.348400E-09  0.266E-04    3.82     153.5  T
     SCC iter.                  ...        0 min,  0.001 sec
     gradient                   ...        0 min,  0.001 sec
 * total energy  :   -25.8351675 Eh     change       -0.4610421E-04 Eh
   gradient norm :     0.0002921 Eh/α   predicted    -0.4457430E-04 (  -3.32%)
   displ. norm   :     0.0034771 α      lambda       -0.4338289E-06
   maximum displ.:     0.0019319 α      in ANC's #5, #8, #4, ...

........................................................................
.............................. CYCLE    6 ..............................
........................................................................
   1    -25.8819315 -0.258819E+02  0.137E-02    3.82       0.0  T
   2    -25.8819315  0.121184E-07  0.152E-02    3.82       2.7  T
   3    -25.8819316 -0.111037E-06  0.116E-02    3.82       3.5  T
   4    -25.8819307  0.880895E-06  0.130E-02    3.82       3.1  T
   5    -25.8819316 -0.887373E-06  0.672E-04    3.82      60.7  T
   6    -25.8819316 -0.473921E-09  0.343E-04    3.82     119.2  T
     SCC iter.                  ...        0 min,  0.001 sec
     gradient                   ...        0 min,  0.001 sec
 * total energy  :   -25.8351674 Eh     change        0.4728783E-07 Eh
   gradient norm :     0.0002675 Eh/α   predicted    -0.2164222E-06 (-557.67%)
   displ. norm   :     0.0054694 α      lambda       -0.8252064E-06
   maximum displ.:     0.0034278 α      in ANC's #5, #4, #8, ...

........................................................................
.............................. CYCLE    7 ..............................
........................................................................
   1    -25.8820093 -0.258820E+02  0.224E-02    3.82       0.0  T
   2    -25.8820093 -0.509650E-07  0.242E-02    3.82       1.7  T
   3    -25.8820095 -0.136109E-06  0.192E-02    3.82       2.1  T
   4    -25.8820063  0.318585E-05  0.221E-02    3.82       1.8  T
   5    -25.8820095 -0.319238E-05  0.116E-03    3.82      35.2  T
   6    -25.8820095 -0.147495E-08  0.566E-04    3.82      72.1  T
   7    -25.8820095 -0.569074E-10  0.561E-05    3.82     727.8  T
     SCC iter.                  ...        0 min,  0.001 sec
     gradient                   ...        0 min,  0.001 sec
 * total energy  :   -25.8351670 Eh     change        0.3779394E-06 Eh
   gradient norm :     0.0004515 Eh/α   predicted    -0.4109693E-06 (-208.74%)
   displ. norm   :     0.0034145 α      lambda       -0.1001478E-05
   maximum displ.:     0.0022310 α      in ANC's #8, #5, #9, ...

........................................................................
.............................. CYCLE    8 ..............................
........................................................................
   1    -25.8818716 -0.258819E+02  0.101E-02    3.82       0.0  T
   2    -25.8818715  0.973454E-07  0.190E-02    3.82       2.1  T
   3    -25.8818716 -0.113460E-06  0.179E-02    3.82       2.3  T
   4    -25.8818714  0.209768E-06  0.175E-02    3.82       2.3  T
   5    -25.8818718 -0.378491E-06  0.705E-04    3.82      57.9  T
   6    -25.8818718 -0.521052E-09  0.384E-04    3.82     106.3  T
     SCC iter.                  ...        0 min,  0.001 sec
     gradient                   ...        0 min,  0.001 sec
 * total energy  :   -25.8351677 Eh     change       -0.6779994E-06 Eh
   gradient norm :     0.0000968 Eh/α   predicted    -0.5009550E-06 ( -26.11%)
   displ. norm   :     0.0039987 α      lambda       -0.1523965E-06
   maximum displ.:     0.0023033 α      in ANC's #1, #5, #4, ...

   *** GEOMETRY OPTIMIZATION CONVERGED AFTER 8 ITERATIONS ***

------------------------------------------------------------------------
 total energy gain   :        -0.0873236 Eh      -54.7964 kcal/mol
 total RMSD          :         0.4772823 a0        0.2526 Å
 total power (kW/mol):       -28.6585021 (step)********** (real)
------------------------------------------------------------------------

 ANCopt (total)                0 d,  0 h,  0 min,  0.019 sec
 optimizer setup                ...        0 min,  0.000 sec (  0.344%)
 model hessian                  ...        0 min,  0.000 sec (  1.864%)
 ANC generation                 ...        0 min,  0.000 sec (  0.401%)
 coordinate transformation      ...        0 min,  0.000 sec (  0.200%)
 single point calculation       ...        0 min,  0.018 sec ( 93.084%)
 optimization log               ...        0 min,  0.000 sec (  1.335%)
 hessian update                 ...        0 min,  0.000 sec (  0.254%)
 rational function              ...        0 min,  0.000 sec (  1.034%)

================
 final structure:
================
6
 xtb: 6.5.0 (746241f)
V            0.03033070169655        1.89716300333148       -0.03404925508798
F           -0.04194970866723        1.22684386197887       -1.53220612869618
F            0.10260967841488        2.56792816158492        1.46390229599804
F            1.17873544380559        0.79471547313270        0.40400591937677
F            0.48158267548546        3.33853886420736       -0.70105238247426
F           -1.56930879073526        1.55841063576468        0.19509955088362
 
 Bond Distances (Angstroems)
 ---------------------------
V1-F2=1.6429         V1-F3=1.6429         V1-F4=1.6511         V1-F5=1.6511         V1-F6=1.6511         F2-V1=1.6429         
F3-V1=1.6429         F4-V1=1.6511         F5-V1=1.6511         F6-V1=1.6511         
 V  F  Rav=1.6478 sigma=0.0040  Rmin=1.6429  Rmax=1.6511     5
 
 selected bond angles (degree)
 --------------------
F3-V1-F2=179.98                F4-V1-F2= 90.01                F4-V1-F3= 90.01                F5-V1-F2= 89.99                
F5-V1-F3= 89.99                F5-V1-F4=120.00                F6-V1-F2= 90.01                F6-V1-F3= 89.99                
F6-V1-F4=120.00                F6-V1-F5=120.00                
 
 selected dihedral angles (degree)
 ---------------------------------

           -------------------------------------------------
          |                Final Singlepoint                |
           -------------------------------------------------

          ...................................................
          :                      SETUP                      :
          :.................................................:
          :  # basis functions                  30          :
          :  # atomic orbitals                  29          :
          :  # shells                           13          :
          :  # electrons                        40          :
          :  max. iterations                   250          :
          :  Hamiltonian                  GFN2-xTB          :
          :  restarted?                      false          :
          :  GBSA solvation                  false          :
          :  PC potential                    false          :
          :  electronic temp.          300.0000000     K    :
          :  accuracy                    1.0000000          :
          :  -> integral cutoff          0.2500000E+02      :
          :  -> integral neglect         0.1000000E-07      :
          :  -> SCF convergence          0.1000000E-05 Eh   :
          :  -> wf. convergence          0.1000000E-03 e    :
          :  Broyden damping             0.4000000          :
          ...................................................

 iter      E             dE          RMSdq      gap      omega  full diag
   1    -25.8818718 -0.258819E+02  0.537E-05    3.82       0.0  T
   2    -25.8818718 -0.564881E-12  0.226E-05    3.82    1809.4  T
   3    -25.8818718  0.817124E-13  0.181E-05    3.82    2252.9  T

   *** convergence criteria satisfied after 3 iterations ***

         #    Occupation            Energy/Eh            Energy/eV
      -------------------------------------------------------------
         1        2.0000           -0.9705009             -26.4087
       ...           ...                  ...                  ...
        14        2.0000           -0.5811975             -15.8152
        15        2.0000           -0.5778314             -15.7236
        16        2.0000           -0.5666467             -15.4192
        17        2.0000           -0.5666455             -15.4192
        18        2.0000           -0.5642749             -15.3547
        19        2.0000           -0.5638928             -15.3443
        20        2.0000           -0.5638837             -15.3441 (HOMO)
        21                         -0.4234041             -11.5214 (LUMO)
        22                         -0.4233975             -11.5212
        23                         -0.3708515             -10.0914
        24                         -0.3708471             -10.0913
        25                         -0.0592488              -1.6122
       ...                                ...                  ...
        29                          0.6099833              16.5985
      -------------------------------------------------------------
                  HL-Gap            0.1404796 Eh            3.8226 eV
             Fermi-level           -0.4936439 Eh          -13.4327 eV

 SCC (total)                   0 d,  0 h,  0 min,  0.002 sec
 SCC setup                      ...        0 min,  0.000 sec (  3.011%)
 Dispersion                     ...        0 min,  0.000 sec (  0.843%)
 classical contributions        ...        0 min,  0.000 sec (  0.250%)
 integral evaluation            ...        0 min,  0.000 sec ( 21.142%)
 iterations                     ...        0 min,  0.001 sec ( 35.809%)
 molecular gradient             ...        0 min,  0.001 sec ( 34.686%)
 printout                       ...        0 min,  0.000 sec (  3.604%)

         :::::::::::::::::::::::::::::::::::::::::::::::::::::
         ::                     SUMMARY                     ::
         :::::::::::::::::::::::::::::::::::::::::::::::::::::
         :: total energy             -25.835167715651 Eh    ::
         :: gradient norm              0.000096607341 Eh/a0 ::
         :: HOMO-LUMO gap              3.822644780711 eV    ::
         ::.................................................::
         :: SCC energy               -25.881871817813 Eh    ::
         :: -> isotropic ES            0.069619183837 Eh    ::
         :: -> anisotropic ES         -0.000210811580 Eh    ::
         :: -> anisotropic XC         -0.000094883724 Eh    ::
         :: -> dispersion             -0.002596301429 Eh    ::
         :: repulsion energy           0.046703692472 Eh    ::
         :: add. restraining           0.000000000000 Eh    ::
         :: total charge               0.000000000000 e     ::
         :::::::::::::::::::::::::::::::::::::::::::::::::::::

           -------------------------------------------------
          |                Property Printout                |
           -------------------------------------------------

    * Orbital Energies and Occupations

         #    Occupation            Energy/Eh            Energy/eV
      -------------------------------------------------------------
         1        2.0000           -0.9705009             -26.4087
       ...           ...                  ...                  ...
         8        2.0000           -0.6085986             -16.5608
         9        2.0000           -0.6085967             -16.5608
        10        2.0000           -0.6010017             -16.3541
        11        2.0000           -0.5866775             -15.9643
        12        2.0000           -0.5850830             -15.9209
        13        2.0000           -0.5850827             -15.9209
        14        2.0000           -0.5811975             -15.8152
        15        2.0000           -0.5778314             -15.7236
        16        2.0000           -0.5666467             -15.4192
        17        2.0000           -0.5666455             -15.4192
        18        2.0000           -0.5642749             -15.3547
        19        2.0000           -0.5638928             -15.3443
        20        2.0000           -0.5638837             -15.3441 (HOMO)
        21                         -0.4234041             -11.5214 (LUMO)
        22                         -0.4233975             -11.5212
        23                         -0.3708515             -10.0914
        24                         -0.3708471             -10.0913
        25                         -0.0592488              -1.6122
        26                          0.4327515              11.7758
        27                          0.4327557              11.7759
        28                          0.4918212              13.3831
        29                          0.6099833              16.5985
      -------------------------------------------------------------
                  HL-Gap            0.1404796 Eh            3.8226 eV
             Fermi-level           -0.4936439 Eh          -13.4327 eV

     #   Z          covCN         q      C6AA      α(0)
     1  23 V        3.373     0.717   113.326    19.222
     2   9 F        0.675    -0.155    10.795     3.879
     3   9 F        0.675    -0.155    10.795     3.879
     4   9 F        0.675    -0.136    10.612     3.846
     5   9 F        0.675    -0.136    10.612     3.846
     6   9 F        0.675    -0.136    10.612     3.846

 Mol. C6AA /au·bohr⁶  :        708.250052
 Mol. C8AA /au·bohr⁸  :      31400.584304
 Mol. α(0) /au        :         38.515703


Wiberg/Mayer (AO) data.
largest (>0.10) Wiberg bond orders for each atom

 ---------------------------------------------------------------------------
     #   Z sym  total        # sym  WBO       # sym  WBO       # sym  WBO
 ---------------------------------------------------------------------------
     1  23 V    6.344 --     4 F    1.291     6 F    1.291     5 F    1.291
                             2 F    1.236     3 F    1.236
     2   9 F    1.475 --     1 V    1.236
     3   9 F    1.475 --     1 V    1.236
     4   9 F    1.505 --     1 V    1.291
     5   9 F    1.505 --     1 V    1.291
     6   9 F    1.505 --     1 V    1.291
 ---------------------------------------------------------------------------

Topologies differ in total number of bonds
Writing topology from bond orders to xtbtopo.mol

MOs/occ written to file <molden.input>


molecular dipole:
                 x           y           z       tot (Debye)
 q only:       -0.000      -0.000      -0.000
   full:       -0.000      -0.001       0.000       0.001
molecular quadrupole (traceless):
                xx          xy          yy          xz          yz          zz
 q only:        0.496      -0.027       0.248      -0.060      -0.557      -0.745
  q+dip:        0.379      -0.021       0.186      -0.045      -0.423      -0.564
   full:        0.887      -0.048       0.442      -0.106      -0.994      -1.329

           -------------------------------------------------
          |                Geometry Summary                 |
           -------------------------------------------------

      molecular mass/u    :      145.9334808
   center of mass at/Å    :        0.0303328       1.8972442      -0.0340498
  moments of inertia/u·Å² :        0.1553749E+03   0.1802385E+03   0.1802445E+03
rotational constants/cm⁻¹ :        0.1084965E+00   0.9352958E-01   0.9352647E-01

 * 5 selected distances

     #   Z          #   Z                                           value/Å
     1  23 V        2   9 F                                       1.6428715
     1  23 V        3   9 F                                       1.6428662 (min)
     1  23 V        4   9 F                                       1.6510957 (max)
     1  23 V        5   9 F                                       1.6510864
     1  23 V        6   9 F                                       1.6510934

 * 1 distinct bonds (by element types)

   Z      Z             #   av. dist./Å        max./Å        min./Å
   9 F   23 V           5     1.6478026     1.6510957     1.6428662


optimized geometry written to: xtbopt.xyz


           -------------------------------------------------
          | TOTAL ENERGY              -25.835167715651 Eh   |
          | GRADIENT NORM               0.000096607341 Eh/α |
          | HOMO-LUMO GAP               3.822644780711 eV   |
           -------------------------------------------------

------------------------------------------------------------------------
 * finished run on 2022/07/20 at 16:38:39.044     
------------------------------------------------------------------------
 total:
 * wall-time:     0 d,  0 h,  0 min,  0.075 sec
 *  cpu-time:     0 d,  0 h,  0 min,  1.078 sec
 * ratio c/w:    14.369 speedup
 SCF:
 * wall-time:     0 d,  0 h,  0 min,  0.008 sec
 *  cpu-time:     0 d,  0 h,  0 min,  0.130 sec
 * ratio c/w:    15.988 speedup
 ANC optimizer:
 * wall-time:     0 d,  0 h,  0 min,  0.021 sec
 *  cpu-time:     0 d,  0 h,  0 min,  0.332 sec
 * ratio c/w:    15.911 speedup

