6
 energy: -25.747844139978 gnorm: 0.112219457885 xtb: 6.5.0 (746241f)
V            0.03030000000000        1.89720000000000       -0.03400000000000
F           -0.05450000000000        1.11170000000000       -1.78880000000000
F            0.11500000000000        2.68270000000000        1.72080000000000
F            1.36900000000000        0.61240000000000        0.47640000000000
F            0.55640000000000        3.57720000000000       -0.81150000000000
F           -1.83420000000000        1.50240000000000        0.23280000000000
6
 energy: -25.787193646882 gnorm: 0.097789351564 xtb: 6.5.0 (746241f)
V            0.03031810926859        1.89723099053769       -0.03402588009443
F           -0.05058194030899        1.14806501742996       -1.70755512189245
F            0.11109420416991        2.64633190773424        1.63953639804942
F            1.30831950571853        0.67058729472393        0.45330306368880
F            0.53255664597731        3.50112217074836       -0.77627022330724
F           -1.74970652482534        1.52026261882582        0.22071176355590
6
 energy: -25.835099669193 gnorm: 0.005642240240 xtb: 6.5.0 (746241f)
V            0.03031842073320        1.89725034982725       -0.03403288299002
F           -0.04174464613389        1.22981293113987       -1.52498912866045
F            0.10229214753875        2.56462706838515        1.45695420505702
F            1.17598469786738        0.79760620817040        0.40283595256824
F            0.48053686920693        3.33500274579948       -0.69939818445320
F           -1.56538748921237        1.55930069667785        0.19433003847842
6
 energy: -25.835121358644 gnorm: 0.004534316719 xtb: 6.5.0 (746241f)
V            0.03032912663629        1.89727016421270       -0.03408484925842
F           -0.04227329378636        1.22491090690116       -1.53592273409028
F            0.10290764628087        2.56951426361568        1.46780252184895
F            1.18225572069664        0.79145001166492        0.40535993079904
F            0.48300767460456        3.34310240928715       -0.70305661267072
F           -1.57422687443200        1.55735224431839        0.19560174337143
6
 energy: -25.835167462858 gnorm: 0.000292100658 xtb: 6.5.0 (746241f)
V            0.03033418006207        1.89725934011415       -0.03398918111358
F           -0.04196713326233        1.22694188247109       -1.53168518685712
F            0.10262072329345        2.56771088429882        1.46365188896305
F            1.17900625526023        0.79446914728665        0.40401514098461
F            0.48170826841626        3.33891502758525       -0.70130128571710
F           -1.56970229376968        1.55830371824403        0.19500862374013
6
 energy: -25.835167415570 gnorm: 0.000267465268 xtb: 6.5.0 (746241f)
V            0.03031876715232        1.89729645675383       -0.03445006137034
F           -0.04241263882883        1.22621707117059       -1.53205130677191
F            0.10304853851037        2.56745951528981        1.46352740586428
F            1.17856953454122        0.79523210309900        0.40441233273516
F            0.48162096534365        3.33897663573573       -0.70046159133755
F           -1.56914516671873        1.55841821795104        0.19472322088036
6
 energy: -25.835167037631 gnorm: 0.000451517814 xtb: 6.5.0 (746241f)
V            0.03035346888208        1.89728663165841       -0.03365537771384
F           -0.04168807150577        1.22709996118776       -1.53209487005120
F            0.10241348571315        2.56819762627658        1.46448592011126
F            1.17816082103861        0.79494211204103        0.40332332812909
F            0.48131910939875        3.33757771338336       -0.70129298565507
F           -1.56855881352681        1.55849595545287        0.19493398517975
6
 energy: -25.835167715630 gnorm: 0.000096769574 xtb: 6.5.0 (746241f)
V            0.03033070169655        1.89716300333148       -0.03404925508798
F           -0.04194970866723        1.22684386197887       -1.53220612869618
F            0.10260967841488        2.56792816158492        1.46390229599804
F            1.17873544380559        0.79471547313270        0.40400591937677
F            0.48158267548546        3.33853886420736       -0.70105238247426
F           -1.56930879073526        1.55841063576468        0.19509955088362
