[Molden Format]
[Title]
[Atoms] AU
V      1    23  0.17924808182475E+01  0.15933225819737E+01  0.00000000000000E+00
[GTO]
           1 0
 d           3   1.00000000000000     
   1.46460111354144       0.541289269380067     
  0.459227846414705       0.246584099394188     
  0.178880564004989       3.285310212979427E-002
 s           4   1.00000000000000     
  0.620292328285123      -5.582646320423134E-002
  0.318202693131201      -8.591824705220233E-002
  9.721032919384519E-002  0.110551834768339     
  5.412501888606512E-002  2.813397944339200E-002
 p           4   1.00000000000000     
   1.31333209181317      -1.209486867993664E-002
  0.380783281880219      -2.563900016215085E-002
  6.645953291714139E-002  3.103120358203114E-002
  3.261115169061254E-002  8.134410154093333E-003
 
[MO]
Sym=     1a
Ene=  -0.309244680017068     
Spin= Alpha
Occup=     2.00000000
           1 -2.071135764751717E-012
           2 -9.934121769389059E-013
           3  3.064547941690623E-012
           4 -5.271295784060354E-012
           5  4.096730250727509E-018
           6 -1.575075846459274E-017
           7   1.00000000000000     
           8 -2.604478614263491E-011
           9 -2.315092790983518E-011
          10 -1.163169808565822E-018
Sym=     2a
Ene=  -0.198747001926308     
Spin= Alpha
Occup=     0.60000000
           1  0.382198283349302     
           2  0.483689314259003     
           3 -0.865887597608305     
           4 -0.496430087166810     
           5  1.264691924133946E-002
           6 -1.422729228174428E-002
           7  2.641450846722060E-016
           8 -6.879894124015762E-016
           9 -4.148797359641816E-016
          10 -4.521487605185914E-018
Sym=     3a
Ene=  -0.198747001926308     
Spin= Alpha
Occup=     0.60000000
           1 -7.269470621425047E-003
           2 -9.215763073533310E-003
           3  1.648523369495836E-002
           4  9.451712132351676E-003
           5  0.664228901158385     
           6 -0.747286830065233     
           7 -8.692055026543532E-018
           8 -3.410563365103682E-016
           9 -2.264924254202787E-017
          10  3.850657336119289E-016
Sym=     4a
Ene=  -0.198747001925792     
Spin= Alpha
Occup=     0.60000000
           1 -6.600772078839187E-003
           2  6.601396850027048E-003
           3 -6.247711878603735E-007
           4  8.993788861732794E-004
           5 -0.747400195938576     
           6 -0.664329766862863     
           7 -7.316194140207914E-018
           8  9.099487668209884E-014
           9 -1.026560191314986E-013
          10  1.784445572582338E-011
Sym=     5a
Ene=  -0.198747001925792     
Spin= Alpha
Occup=     0.60000000
           1  0.860080894333454     
           2 -0.860004922949249     
           3 -7.597138420512953E-005
           4 -0.117086918951511     
           5 -5.741899562913144E-003
           6 -5.092997398247361E-003
           7  9.532005206778673E-016
           8 -1.185779017167263E-011
           9  1.333481275867178E-011
          10  1.369629536828544E-013
Sym=     6a
Ene=  -0.198747001925620     
Spin= Alpha
Occup=     0.60000000
           1 -0.337770501986570     
           2 -0.162196396523821     
           3  0.499966898510392     
           4 -0.860091668498993     
           5 -1.226434747820722E-007
           6 -1.679870573222806E-006
           7 -6.129042643891328E-012
           8  1.539881850877257E-011
           9  1.369186788275588E-011
          10  2.120772872888512E-017
Sym=     7a
Ene=   6.159623505165271E-002
Spin= Alpha
Occup=     0.00000000
           1 -1.754177128411509E-012
           2  1.754175816633902E-012
           3  1.311777606285801E-018
           4  2.391172112079470E-013
           5 -1.325005725778581E-011
           6 -1.177791686804075E-011
           7 -1.066448130426640E-017
           8 -7.593450177994662E-002
           9  8.542574184128283E-002
          10 -0.993446724324107     
Sym=     8a
Ene=   6.159623505165274E-002
Spin= Alpha
Occup=     0.00000000
           1  1.524710825245277E-011
           2 -1.524703207490924E-011
           3 -7.617754353191267E-017
           4 -2.078258020832886E-012
           5 -1.524494729407786E-012
           6 -1.355080937626343E-012
           7  2.816401796579513E-016
           8  0.660017110800424     
           9 -0.742505089222589     
          10 -0.114296132608308     
Sym=     9a
Ene=   6.159623505535045E-002
Spin= Alpha
Occup=     0.00000000
           1  6.963096240885629E-012
           2  3.339708062639578E-012
           3 -1.030280430352521E-011
           4  1.772193595184995E-011
           5  1.278376308524918E-016
           6  2.629041555379673E-018
           7  3.484677376242186E-011
           8  0.747403080599814     
           9  0.664370856607529     
          10  6.972988742837441E-007
