2
 energy: -5.763935420216 gnorm: 0.000000001012 xtb: 6.5.1 (579679a)
N           -0.78637817035413        0.32043192030404       -0.71962345743511
N            0.01780817035413        0.22576807969596        0.02227345743511
