      -----------------------------------------------------------      
     |                   =====================                   |     
     |                           x T B                           |     
     |                   =====================                   |     
     |                         S. Grimme                         |     
     |          Mulliken Center for Theoretical Chemistry        |     
     |                    University of Bonn                     |     
      -----------------------------------------------------------      

   * xtb version 6.2.2 (655bc02) compiled by 'ehlert@majestix' on 2019-12-09

   This program is distributed in the hope that it will be useful,
   but WITHOUT ANY WARRANTY; without even the implied warranty of
   MERCHANTABILITY or FITNESS FOR A PARTICULAR PURPOSE.
   
   FOR NON-COMMERCIAL, ACADEMIA USE ONLY.
   
   Cite this work as:
   * S. Grimme, C. Bannwarth, P. Shushkov, J. Chem. Theory Comput., 2017,
     13, 1989-2009. DOI: 10.1021/acs.jctc.7b00118
   * C. Bannwarth, S. Ehlert and S. Grimme., J. Chem. Theory Comput., 2019,
     15, 1652-1671. DOI: 10.1021/acs.jctc.8b01176
   * P. Pracht, E. Caldeweyher, S. Ehlert, S. Grimme, ChemRxiv, 2019, preprint.
     DOI: 10.26434/chemrxiv.8326202.v1
   
   for DFT-D4:
   * E. Caldeweyher, C. Bannwarth and S. Grimme, J. Chem. Phys., 2017,
     147, 034112. DOI: 10.1063/1.4993215
   * E. Caldeweyher, S. Ehlert, A. Hansen, H. Neugebauer, S. Spicher,
     C. Bannwarth and S. Grimme, J. Chem. Phys., 2019, 150, 154122.
     DOI: 10.1063/1.5090222
   
   for sTDA-xTB:
   * S. Grimme and C. Bannwarth, J. Chem. Phys., 2016, 145, 054103.
     DOI: 10.1063/1.4959605
   
   in the mass-spec context:
   * V. Asgeirsson, C. Bauer and S. Grimme, Chem. Sci., 2017, 8, 4879.
     DOI: 10.1039/c7sc00601b
   
   for metadynamics refer to:
   * S. Grimme, J. Chem. Theory Comput., 2019, 155, 2847-2862
     DOI: 10.1021/acs.jctc.9b00143
   
   with help from (in alphabetical order)
   C. Bannwarth, F. Bohle, G. Brandenburg, E. Caldeweyher, M. Checinski,
   S. Dohm, S. Ehlert, S. Ehrlich, F. März, H. Neugebauer, J. Pisarek,
   P. Pracht, P. Shushkov, and S. Spicher.
   
 * started run on 2022/08/16 at 10:51:31.044     

           -------------------------------------------------
          |                Calculation Setup                |
           -------------------------------------------------

          program call               : xtb -c 0 -u 0 input.xyz --ohess
          coordinate file            : input.xyz
          omp threads                :                     8
          number of atoms            :                     2
          number of electrons        :                    10
          charge                     :                     0
          spin                       :                   0.0
          first test random number   :      0.58874908929862


########################################################################
# WARNING! Please study the warnings concerning your input carefully
#  - XTBHOME is not set, using HOME instead
#  - XTBPATH is not set, using XTBHOME instead
########################################################################

           ------------------------------------------------- 
          |                 G F N 2 - x T B                 |
          | Geometry, Frequencies, Noncovalent interactions |
          |            JCTC 2019 parametrisation            |
           ------------------------------------------------- 
             k(s)              :                1.8500
             k(p)              :                2.2300
             k(d)              :                2.2300
             k(f)              :                2.0000
             kEN (H0ij)        :               -2.0000
             D4 a1             :                0.5200
             D4 a2             :                5.0000
             D4 s6             :                1.0000
             D4 s8             :                2.7000
             D4 s9             :                5.0000
             alphaj            :                2.0000

  Z AO/shell   Hii/eV     exponent
  7     Wed Apr 25 08:07:45 CEST 2018   EN: 3.040 GM2: 0.461  GM3:-0.0640  RAES: 1.90
     2s    -16.686243    2.339881
     2p    -12.523956    2.014332

           ------------------------------------------------- 
          |        Self-Consistent Charge Iterations        |
           ------------------------------------------------- 

          ...................................................
          :                      SETUP                      :
          :.................................................:
          :  # basis functions                   8          :
          :  # atomic orbitals                   8          :
          :  # shells                            4          :
          :  # electrons                        10          :
          :  max. iterations                   250          :
          :  Hamiltonian                  GFN2-xTB          :
          :  restarted?                      false          :
          :  GBSA solvation                  false          :
          :  PC potential                    false          :
          :  electronic temp.          300.0000000     K    :
          :  accuracy                    1.0000000          :
          :  -> integral cutoff          0.2500000E+02      :
          :  -> integral neglect         0.1000000E-07      :
          :  -> SCF convergence          0.1000000E-05 Eh   :
          :  -> wf. convergence          0.1000000E-03 e    :
          :  Broyden damping             0.4000000          :
          ...................................................

 iter      E             dE          RMSdq      gap      omega  full diag
   1     -5.6242605 -0.562426E+01  0.891E+00    3.44       0.0  T
   2     -5.6278403 -0.357982E-02  0.513E+00    2.91       1.0  T
   3     -5.6291223 -0.128199E-02  0.739E-01    2.24       1.0  T
   4     -5.6291409 -0.186376E-04  0.358E-02    2.29       2.0  T
   5     -5.6291410 -0.526415E-07  0.325E-04    2.29     217.3  T
   6     -5.6291410 -0.217693E-11  0.156E-04    2.29     451.9  T

   *** convergence criteria satisfied after 6 iterations ***

         #    Occupation            Energy/Eh            Energy/eV
      -------------------------------------------------------------
         1        2.0000           -0.6463954             -17.5893
         2        2.0000           -0.5766395             -15.6912
         3        2.0000           -0.5186024             -14.1119
         4        2.0000           -0.5186024             -14.1119
         5        2.0000           -0.4897806             -13.3276 (HOMO)
         6                         -0.4058059             -11.0425 (LUMO)
         7                         -0.4058059             -11.0425
         8                         -0.0538229              -1.4646
      -------------------------------------------------------------
                  HL-Gap            0.0839747 Eh            2.2851 eV
             Fermi-level           -0.4477932 Eh          -12.1851 eV

 SCC (total)                   0 d,  0 h,  0 min,  0.002 sec
 SCC setup                      ...        0 min,  0.000 sec (  2.907%)
 Dispersion                     ...        0 min,  0.000 sec (  0.858%)
 integral evaluation            ...        0 min,  0.000 sec (  5.993%)
 zeroth order Hamiltonian       ...        0 min,  0.000 sec (  0.548%)
 iterations                     ...        0 min,  0.001 sec ( 31.181%)
 molecular gradient             ...        0 min,  0.000 sec (  9.448%)
 printout                       ...        0 min,  0.001 sec ( 47.778%)

         :::::::::::::::::::::::::::::::::::::::::::::::::::::
         ::                     SUMMARY                     ::
         :::::::::::::::::::::::::::::::::::::::::::::::::::::
         :: total energy              -5.622858884669 Eh    ::
         :: gradient norm              0.442504250248 Eh/a0 ::
         :: HOMO-LUMO gap              2.285067940905 eV    ::
         ::.................................................::
         :: SCC energy                -5.629140956451 Eh    ::
         :: -> isotropic ES            0.000903431427 Eh    ::
         :: -> anisotropic ES          0.000064493364 Eh    ::
         :: -> anisotropic XC          0.029943489028 Eh    ::
         :: -> dispersion             -0.000255690279 Eh    ::
         :: repulsion energy           0.006282071800 Eh    ::
         :: add. restraining           0.000000000000 Eh    ::
         :::::::::::::::::::::::::::::::::::::::::::::::::::::

      ----------------------------------------------------------- 
     |                   =====================                   |
     |                        A N C O P T                        |
     |                   =====================                   |
     |               Approximate Normal Coordinate               |
     |                Rational Function Optimizer                |
      ----------------------------------------------------------- 

          ...................................................
          :                      SETUP                      :
          :.................................................:
          :   optimization level            normal          :
          :   max. optcycles                   200          :
          :   ANC micro-cycles                  20          :
          :   degrees of freedom                 1          :
          :.................................................:
          :   RF solver                   davidson          :
          :   write xtbopt.log                true          :
          :   linear (good luck)              true          :
          :   energy convergence         0.5000000E-05 Eh   :
          :   grad. convergence          0.1000000E-02 Eh/α :
          :   maximium RF displ.         1.0000000          :
          :   Hlow (freq-cutoff)         0.1000000E-01      :
          :   Hmax (freq-cutoff)         5.0000000          :
          :   S6 in model hess.         20.0000000          :
          ...................................................

generating ANC from model Hessian ...
Using Lindh-Hessian (1995)
 Shifting diagonal of input Hessian by   9.985982208220794E-003
 Lowest  eigenvalues of input Hessian
   -0.000000   -0.000000    0.000000    0.010000    0.010000    1.079380
 Highest eigenvalues
   -0.000000   -0.000000    0.000000    0.010000    0.010000    1.079380
 

........................................................................
.............................. CYCLE    1 ..............................
........................................................................
   1     -5.6291410 -0.562914E+01  0.206E-07    2.29       0.0  T
   2     -5.6291410 -0.177636E-14  0.106E-07    2.29  100000.0  T
   3     -5.6291410  0.000000E+00  0.192E-08    2.29  100000.0  T
     SCC iter.                  ...        0 min,  0.000 sec
     gradient                   ...        0 min,  0.000 sec
 * total energy  :    -5.6228589 Eh     change       -0.1953993E-12 Eh
   gradient norm :     0.4425028 Eh/α   predicted     0.0000000E+00 (-100.00%)
   displ. norm   :     0.3575502 α      lambda       -0.1582169E+00
   maximum displ.:     0.3575502 α      in ANC's #1, #1, #1, ...

........................................................................
.............................. CYCLE    2 ..............................
........................................................................
   1     -5.8127657 -0.581277E+01  0.379E+00    4.23       0.0  T
   2     -5.8131289 -0.363209E-03  0.213E+00    4.00       1.0  T
   3     -5.8132714 -0.142532E-03  0.146E-01    3.71       1.0  T
   4     -5.8132719 -0.458577E-06  0.742E-03    3.70       9.5  T
   5     -5.8132719 -0.251231E-08  0.198E-05    3.70    3570.9  T
   6     -5.8132719  0.710543E-14  0.897E-06    3.70    7882.0  T
     SCC iter.                  ...        0 min,  0.000 sec
     gradient                   ...        0 min,  0.000 sec
 * total energy  :    -5.7567087 Eh     change       -0.1338498E+00 Eh
   gradient norm :     0.1865234 Eh/α   predicted    -0.8922187E-01 ( -33.34%)
   displ. norm   :     0.2449077 α      lambda       -0.4568103E-01
   maximum displ.:     0.2449077 α      in ANC's #1, #1, #1, ...

........................................................................
.............................. CYCLE    3 ..............................
........................................................................
   1     -5.9297541 -0.592975E+01  0.310E+00    5.90       0.0  T
   2     -5.9299096 -0.155523E-03  0.177E+00    5.72       1.0  T
   3     -5.9299735 -0.638650E-04  0.816E-02    5.48       1.0  T
   4     -5.9299737 -0.195884E-06  0.824E-03    5.48       8.6  T
   5     -5.9299737 -0.342603E-08  0.714E-06    5.48    9899.0  T
   6     -5.9299737 -0.177636E-14  0.225E-06    5.48   31381.9  T
     SCC iter.                  ...        0 min,  0.000 sec
     gradient                   ...        0 min,  0.000 sec
 * total energy  :    -5.6981658 Eh     change        0.5854289E-01 Eh
   gradient norm :     0.8978152 Eh/α   predicted    -0.2421048E-01 (-141.36%)
   displ. norm   :     0.1950640 α      lambda       -0.1751314E+00
   maximum displ.:     0.1950640 α      in ANC's #1, #1, #1, ...

........................................................................
.............................. CYCLE    4 ..............................
........................................................................
   1     -5.8387667 -0.583877E+01  0.253E+00    3.65       0.0  T
   2     -5.8389393 -0.172612E-03  0.141E+00    3.80       1.0  T
   3     -5.8390104 -0.710708E-04  0.746E-02    3.99       1.0  T
   4     -5.8390105 -0.110436E-06  0.531E-03    3.99      13.3  T
   5     -5.8390105 -0.125148E-09  0.554E-06    3.99   12767.5  T
     SCC iter.                  ...        0 min,  0.000 sec
     gradient                   ...        0 min,  0.000 sec
 * total energy  :    -5.7631661 Eh     change       -0.6500033E-01 Eh
   gradient norm :     0.0667333 Eh/α   predicted    -0.9089758E-01 (  39.84%)
   displ. norm   :     0.0134932 α      lambda       -0.9004482E-03
   maximum displ.:     0.0134932 α      in ANC's #1, #1, #1, ...

........................................................................
.............................. CYCLE    5 ..............................
........................................................................
   1     -5.8458741 -0.584587E+01  0.167E-01    4.09       0.0  T
   2     -5.8458748 -0.700916E-06  0.935E-02    4.08       1.0  T
   3     -5.8458750 -0.284847E-06  0.530E-03    4.07      13.4  T
   4     -5.8458750 -0.579297E-09  0.176E-04    4.07     402.3  T
     SCC iter.                  ...        0 min,  0.000 sec
     gradient                   ...        0 min,  0.000 sec
 * total energy  :    -5.7638078 Eh     change       -0.6416642E-03 Eh
   gradient norm :     0.0278792 Eh/α   predicted    -0.4503058E-03 ( -29.82%)
   displ. norm   :     0.0096810 α      lambda       -0.2698958E-03
   maximum displ.:     0.0096810 α      in ANC's #1, #1, #1, ...

........................................................................
.............................. CYCLE    6 ..............................
........................................................................
   1     -5.8507660 -0.585077E+01  0.120E-01    4.15       0.0  T
   2     -5.8507664 -0.358066E-06  0.675E-02    4.14       1.0  T
   3     -5.8507665 -0.145930E-06  0.376E-03    4.13      18.8  T
   4     -5.8507665 -0.297889E-09  0.117E-04    4.13     602.2  T
     SCC iter.                  ...        0 min,  0.000 sec
     gradient                   ...        0 min,  0.000 sec
 * total energy  :    -5.7639349 Eh     change       -0.1270757E-03 Eh
   gradient norm :     0.0018941 Eh/α   predicted    -0.1349614E-03 (   6.21%)
   displ. norm   :     0.0009238 α      lambda       -0.1164173E-05
   maximum displ.:     0.0009238 α      in ANC's #1, #1, #1, ...

........................................................................
.............................. CYCLE    7 ..............................
........................................................................
   1     -5.8503010 -0.585030E+01  0.115E-02    4.12       0.0  T
   2     -5.8503010 -0.328215E-08  0.645E-03    4.13      11.0  T
   3     -5.8503010 -0.133843E-08  0.359E-04    4.13     197.1  T
   4     -5.8503010 -0.271516E-11  0.215E-06    4.13   32870.0  T
     SCC iter.                  ...        0 min,  0.000 sec
     gradient                   ...        0 min,  0.000 sec
 * total energy  :    -5.7639353 Eh     change       -0.4051082E-06 Eh
   gradient norm :     0.0010161 Eh/α   predicted    -0.5832663E-06 (  43.98%)
   displ. norm   :     0.0003226 α      lambda       -0.2155369E-06
   maximum displ.:     0.0003226 α      in ANC's #1, #1, #1, ...

........................................................................
.............................. CYCLE    8 ..............................
........................................................................
   1     -5.8504636 -0.585046E+01  0.402E-03    4.13       0.0  T
   2     -5.8504636 -0.400621E-09  0.225E-03    4.13      31.4  T
   3     -5.8504636 -0.163364E-09  0.125E-04    4.13     564.3  T
   4     -5.8504636 -0.300204E-12  0.516E-06    4.13   13692.6  T
     SCC iter.                  ...        0 min,  0.000 sec
     gradient                   ...        0 min,  0.000 sec
 * total energy  :    -5.7639354 Eh     change       -0.1641212E-06 Eh
   gradient norm :     0.0000012 Eh/α   predicted    -0.1092559E-06 ( -33.43%)
   displ. norm   :     0.0000004 α      lambda       -0.8347745E-10
   maximum displ.:     0.0000004 α      in ANC's #1, #1, #1, ...

   *** GEOMETRY OPTIMIZATION CONVERGED AFTER 8 ITERATIONS ***

------------------------------------------------------------------------
 total energy gain   :        -0.1410765 Eh      -88.5269 kcal/mol
 total RMSD          :         0.3040325 a0        0.1609 Å
 total power (kW/mol):       -46.2995493 (step)********** (real)
------------------------------------------------------------------------

 ANCopt (total)                0 d,  0 h,  0 min,  0.005 sec
 optimizer setup                ...        0 min,  0.000 sec (  3.804%)
 model hessian                  ...        0 min,  0.000 sec (  0.353%)
 ANC generation                 ...        0 min,  0.000 sec (  0.549%)
 coordinate transformation      ...        0 min,  0.000 sec (  0.693%)
 single point calculation       ...        0 min,  0.004 sec ( 74.298%)
 optimization log               ...        0 min,  0.001 sec ( 12.281%)
 hessian update                 ...        0 min,  0.000 sec (  1.246%)
 rational function              ...        0 min,  0.000 sec (  2.065%)

================
 final structure:
================
$coord
   -1.48603949632406    0.60552854560446   -1.35989136280152      N 
    0.03365282347269    0.42663976790168    0.04209097205911      N 
$end
 
 Bond Distances (Angstroems)
 ---------------------------
N1-N2=1.0982         N2-N1=1.0982         
 N  N  Rav=1.0982 sigma=0.0000  Rmin=1.0982  Rmax=1.0982     1
 
 selected bond angles (degree)
 --------------------

 
 selected dihedral angles (degree)
 ---------------------------------

           -------------------------------------------------
          |                Final Singlepoint                |
           -------------------------------------------------

          ...................................................
          :                      SETUP                      :
          :.................................................:
          :  # basis functions                   8          :
          :  # atomic orbitals                   8          :
          :  # shells                            4          :
          :  # electrons                        10          :
          :  max. iterations                   250          :
          :  Hamiltonian                  GFN2-xTB          :
          :  restarted?                      false          :
          :  GBSA solvation                  false          :
          :  PC potential                    false          :
          :  electronic temp.          300.0000000     K    :
          :  accuracy                    1.0000000          :
          :  -> integral cutoff          0.2500000E+02      :
          :  -> integral neglect         0.1000000E-07      :
          :  -> SCF convergence          0.1000000E-05 Eh   :
          :  -> wf. convergence          0.1000000E-03 e    :
          :  Broyden damping             0.4000000          :
          ...................................................

 iter      E             dE          RMSdq      gap      omega  full diag
   1     -5.8504636 -0.585046E+01  0.143E-06    4.13       0.0  T
   2     -5.8504636  0.177636E-14  0.766E-07    4.13   92257.4  T
   3     -5.8504636  0.266454E-14  0.457E-07    4.13  100000.0  T

   *** convergence criteria satisfied after 3 iterations ***

         #    Occupation            Energy/Eh            Energy/eV
      -------------------------------------------------------------
         1        2.0000           -0.7172815             -19.5182
         2        2.0000           -0.5734672             -15.6048
         3        2.0000           -0.5734672             -15.6048
         4        2.0000           -0.5698360             -15.5060
         5        2.0000           -0.4514205             -12.2838 (HOMO)
         6                         -0.2997002              -8.1553 (LUMO)
         7                         -0.2997002              -8.1553
         8                          0.7707522              20.9732
      -------------------------------------------------------------
                  HL-Gap            0.1517203 Eh            4.1285 eV
             Fermi-level           -0.3755603 Eh          -10.2195 eV

 SCC (total)                   0 d,  0 h,  0 min,  0.001 sec
 SCC setup                      ...        0 min,  0.000 sec (  3.121%)
 Dispersion                     ...        0 min,  0.000 sec (  0.381%)
 integral evaluation            ...        0 min,  0.000 sec (  7.839%)
 zeroth order Hamiltonian       ...        0 min,  0.000 sec (  0.526%)
 iterations                     ...        0 min,  0.000 sec ( 13.156%)
 molecular gradient             ...        0 min,  0.000 sec ( 12.539%)
 printout                       ...        0 min,  0.001 sec ( 60.588%)

         :::::::::::::::::::::::::::::::::::::::::::::::::::::
         ::                     SUMMARY                     ::
         :::::::::::::::::::::::::::::::::::::::::::::::::::::
         :: total energy              -5.763935420657 Eh    ::
         :: gradient norm              0.000001162855 Eh/a0 ::
         :: HOMO-LUMO gap              4.128519283527 eV    ::
         ::.................................................::
         :: SCC energy                -5.850463584565 Eh    ::
         :: -> isotropic ES            0.000102468939 Eh    ::
         :: -> anisotropic ES          0.000342704869 Eh    ::
         :: -> anisotropic XC          0.027046206309 Eh    ::
         :: -> dispersion             -0.000255719460 Eh    ::
         :: repulsion energy           0.086528163928 Eh    ::
         :: add. restraining           0.000000000000 Eh    ::
         :::::::::::::::::::::::::::::::::::::::::::::::::::::

           ------------------------------------------------- 
          |                Numerical Hessian                |
           ------------------------------------------------- 
step length          :   0.00500
SCC accuracy         :   0.30000
Hessian scale factor :   1.00000
frozen atoms in %    :   0.00000    0
RMS gradient         :   0.00000

writing file <hessian>.

 vibrational frequencies (cm-1)
eigval :        0.00     0.00     0.00     0.00     0.00  2437.58
           -------------------------------------------------
          |                Property Printout                |
           -------------------------------------------------

    * Orbital Energies and Occupations

         #    Occupation            Energy/Eh            Energy/eV
      -------------------------------------------------------------
         1        2.0000           -0.7172815             -19.5182
         2        2.0000           -0.5734672             -15.6048
         3        2.0000           -0.5734672             -15.6048
         4        2.0000           -0.5698360             -15.5060
         5        2.0000           -0.4514205             -12.2838 (HOMO)
         6                         -0.2997002              -8.1553 (LUMO)
         7                         -0.2997002              -8.1553
         8                          0.7707522              20.9732
      -------------------------------------------------------------
                  HL-Gap            0.1517203 Eh            4.1285 eV
             Fermi-level           -0.3755603 Eh          -10.2195 eV

     #   Z        covCN         q      C6AA      α(0)
     1   7 N      0.981     0.000    20.943     6.584
     2   7 N      0.981    -0.000    20.943     6.584

 Mol. C6AA /au·bohr⁶  :         83.773341
 Mol. C8AA /au·bohr⁸  :       1848.107226
 Mol. α(0) /au        :         13.167612


Wiberg/Mayer (AO) data.
largest (>0.10) Wiberg bond orders for each atom
          total WBO             WBO to atom ...
     1  N   3.000        N    2 3.000
     2  N   3.000        N    1 3.000

molecular dipole:
                 x           y           z       tot (Debye)
 q only:       -0.000       0.000      -0.000
   full:       -0.000       0.000      -0.000       0.000
molecular quadrupole (traceless):
                xx          xy          yy          xz          yz          zz
 q only:        0.000      -0.000      -0.000       0.000      -0.000       0.000
  q+dip:       -0.113       0.035       0.181      -0.275       0.032      -0.068
   full:       -0.515       0.160       0.827      -1.255       0.148      -0.312

           -------------------------------------------------
          |                Geometry Summary                 |
           -------------------------------------------------

      molecular mass/u    :       28.0134064
   center of mass at/Å    :       -0.3842848       0.2731014      -0.3486741
  moments of inertia/u·Å² :       -0.1536863E-14   0.8446664E+01   0.8446664E+01
rotational constants/cm⁻¹ :       -0.1096886E+17   0.1995774E+01   0.1995774E+01

 * 1 selected distances

     #   Z        #   Z                                     value/Å
     0   0        0   0                                   0.0000000 (max)

 * 0 distinct bonds (by element types)

   Z      Z             #   av. dist./Å        max./Å        min./Å

           -------------------------------------------------
          |               Frequency Printout                |
           -------------------------------------------------
 vibrational frequencies (cm-1)
eigval :        0.00     0.00     0.00     0.00     0.00  2437.58
 reduced masses (amu)
   1: 14.01   2: 14.01   3: 14.01   4: 14.01   5: 14.01   6: 14.01
 IR intensities (amu)
   1:  0.00   2:  0.00   3:  0.00   4:  0.00   5:  0.00   6:  0.00
 Raman intensities (amu)
   1:  0.00   2:  0.00   3:  0.00   4:  0.00   5:  0.00   6:  0.00
 output can be read by thermo (or use thermo option).
 writing <g98.out> molden fake output.
 recommended (thermochemical) frequency scaling factor: 1.0
           -------------------------------------------------
          |             Thermodynamic Functions             |
           -------------------------------------------------

Molecule has the following symmetry elements: (i) (Cinf) (C2) 2*(sigma) 
It seems to be the Dinfh point group
din symmetry found (for desy threshold:  0.10E+00) used in thermo

          ...................................................
          :                      SETUP                      :
          :.................................................:
          :  # frequencies                           1      :
          :  # imaginary freq.                       0      :
          :  linear?                              true      :
          :  only rotor calc.                    false      :
          :  symmetry                              din      :
          :  rotational number                       2      :
          :  scaling factor                  1.0000000      :
          :  rotor cutoff                   50.0000000 cm⁻¹ :
          :  imag. cutoff                  -20.0000000 cm⁻¹ :
          :.................................................:

    mode    ω/cm⁻¹     T·S(HO)/kcal·mol⁻¹    T·S(FR)/kcal·mol⁻¹   T·S(vib)
   ------------------------------------------------------------------------
   ------------------------------------------------------------------------

   temp. (K)  partition function   enthalpy   heat capacity  entropy
                                   cal/mol     cal/K/mol   cal/K/mol   J/K/mol
 298.15  VIB   1.00                    0.054      0.002      0.000
         ROT   51.9                  592.502      1.987      9.836
         INT   51.9                  592.556      1.989      9.836
         TR   0.143E+27             1481.254      4.968     35.909
         TOT                        2073.8098     6.9576    45.7451   191.3974

       T/K    H(0)-H(T)+PV         H(T)/Eh          T*S/Eh         G(T)/Eh
   ------------------------------------------------------------------------
    298.15    0.330483E-02    0.885805E-02    0.217350E-01   -0.128769E-01
   ------------------------------------------------------------------------

         :::::::::::::::::::::::::::::::::::::::::::::::::::::
         ::                  THERMODYNAMIC                  ::
         :::::::::::::::::::::::::::::::::::::::::::::::::::::
         :: total free energy          -5.776812339176 Eh   ::
         ::.................................................::
         :: total energy               -5.763935420657 Eh   ::
         :: zero point energy           0.005553219015 Eh   ::
         :: G(RRHO) w/o ZPVE           -0.018430137534 Eh   ::
         :: G(RRHO) contrib.           -0.012876918519 Eh   ::
         :::::::::::::::::::::::::::::::::::::::::::::::::::::

optimized geometry written to: xtbopt.xyz


           -------------------------------------------------
          | TOTAL ENERGY               -5.763935420657 Eh   |
          | TOTAL ENTHALPY             -5.755077375417 Eh   |
          | TOTAL FREE ENERGY          -5.776812339176 Eh   |
          | GRADIENT NORM               0.000001162824 Eh/α |
          | HOMO-LUMO GAP               4.128519282518 eV   |
           -------------------------------------------------

------------------------------------------------------------------------
 * finished run on 2022/08/16 at 10:51:31.112     
------------------------------------------------------------------------
 total:
 * wall-time:     0 d,  0 h,  0 min,  0.068 sec
 *  cpu-time:     0 d,  0 h,  0 min,  0.325 sec
 * ratio c/w:     4.759 speedup
 SCF:
 * wall-time:     0 d,  0 h,  0 min,  0.002 sec
 *  cpu-time:     0 d,  0 h,  0 min,  0.013 sec
 * ratio c/w:     5.567 speedup
 ANC optimizer:
 * wall-time:     0 d,  0 h,  0 min,  0.009 sec
 *  cpu-time:     0 d,  0 h,  0 min,  0.050 sec
 * ratio c/w:     5.607 speedup
 numerical hessian:
 * wall-time:     0 d,  0 h,  0 min,  0.004 sec
 *  cpu-time:     0 d,  0 h,  0 min,  0.025 sec
 * ratio c/w:     5.751 speedup

