      -----------------------------------------------------------      
     |                   =====================                   |     
     |                           x T B                           |     
     |                   =====================                   |     
     |                         S. Grimme                         |     
     |          Mulliken Center for Theoretical Chemistry        |     
     |                    University of Bonn                     |     
      -----------------------------------------------------------      

   * xtb version 6.5.1 (579679a) compiled by 'ehlert@majestix' on 2022-07-11

   xtb is free software: you can redistribute it and/or modify it under
   the terms of the GNU Lesser General Public License as published by
   the Free Software Foundation, either version 3 of the License, or
   (at your option) any later version.
   
   xtb is distributed in the hope that it will be useful,
   but WITHOUT ANY WARRANTY; without even the implied warranty of
   MERCHANTABILITY or FITNESS FOR A PARTICULAR PURPOSE.  See the
   GNU Lesser General Public License for more details.
   
   Cite this work as:
   * C. Bannwarth, E. Caldeweyher, S. Ehlert, A. Hansen, P. Pracht,
     J. Seibert, S. Spicher, S. Grimme, WIREs Comput. Mol. Sci., 2020, 11,
     e01493. DOI: 10.1002/wcms.1493
   
   for GFN2-xTB:
   * C. Bannwarth, S. Ehlert and S. Grimme., J. Chem. Theory Comput., 2019,
     15, 1652-1671. DOI: 10.1021/acs.jctc.8b01176
   for GFN1-xTB:
   * S. Grimme, C. Bannwarth, P. Shushkov, J. Chem. Theory Comput., 2017,
     13, 1989-2009. DOI: 10.1021/acs.jctc.7b00118
   for GFN0-xTB:
   * P. Pracht, E. Caldeweyher, S. Ehlert, S. Grimme, ChemRxiv, 2019, preprint.
     DOI: 10.26434/chemrxiv.8326202.v1
   for GFN-FF:
   * S. Spicher and S. Grimme, Angew. Chem. Int. Ed., 2020, 59, 15665-15673.
     DOI: 10.1002/anie.202004239
   
   for ALPB and GBSA implicit solvation:
   * S. Ehlert, M. Stahn, S. Spicher, S. Grimme, J. Chem. Theory Comput.,
     2021, 17, 4250-4261. DOI: 10.1021/acs.jctc.1c00471
   
   for DFT-D4:
   * E. Caldeweyher, C. Bannwarth and S. Grimme, J. Chem. Phys., 2017,
     147, 034112. DOI: 10.1063/1.4993215
   * E. Caldeweyher, S. Ehlert, A. Hansen, H. Neugebauer, S. Spicher,
     C. Bannwarth and S. Grimme, J. Chem. Phys., 2019, 150, 154122.
     DOI: 10.1063/1.5090222
   * E. Caldeweyher, J.-M. Mewes, S. Ehlert and S. Grimme, Phys. Chem. Chem. Phys.
     2020, 22, 8499-8512. DOI: 10.1039/D0CP00502A
   
   for sTDA-xTB:
   * S. Grimme and C. Bannwarth, J. Chem. Phys., 2016, 145, 054103.
     DOI: 10.1063/1.4959605
   
   in the mass-spec context:
   * V. Asgeirsson, C. Bauer and S. Grimme, Chem. Sci., 2017, 8, 4879.
     DOI: 10.1039/c7sc00601b
   * J. Koopman and S. Grimme, ACS Omega 2019, 4, 12, 15120-15133.
     DOI: 10.1021/acsomega.9b02011
   
   for metadynamics refer to:
   * S. Grimme, J. Chem. Theory Comput., 2019, 155, 2847-2862
     DOI: 10.1021/acs.jctc.9b00143
   
   for SPH calculations refer to:
   * S. Spicher and S. Grimme, J. Chem. Theory Comput., 2021, 17, 1701-1714
     DOI: 10.1021/acs.jctc.0c01306
   
   with help from (in alphabetical order)
   P. Atkinson, C. Bannwarth, F. Bohle, G. Brandenburg, E. Caldeweyher
   M. Checinski, S. Dohm, S. Ehlert, S. Ehrlich, I. Gerasimov, C. Hölzer
   A. Katbashev, J. Koopman, C. Lavigne, S. Lehtola, F. März, M. Müller,
   F. Musil, H. Neugebauer, J. Pisarek, C. Plett, P. Pracht, F. Pultar,
   J. Seibert, P. Shushkov, S. Spicher, M. Stahn, M. Steiner, T. Strunk,
   J. Stückrath, T. Rose, and J. Unsleber
   
 * started run on 2022/08/17 at 10:06:15.864     

           -------------------------------------------------
          |                Calculation Setup                |
           -------------------------------------------------

          program call               : xtb -c 0 -u 0 input.xyz --hess
          coordinate file            : input.xyz
          omp threads                :                     8

   ID    Z sym.   atoms
    1    7 N      1, 2

           -------------------------------------------------
          |                 G F N 2 - x T B                 |
           -------------------------------------------------

        Reference                      10.1021/acs.jctc.8b01176
      * Hamiltonian:
        H0-scaling (s, p, d)           1.850000    2.230000    2.230000
        zeta-weighting                 0.500000
      * Dispersion:
        s8                             2.700000
        a1                             0.520000
        a2                             5.000000
        s9                             5.000000
      * Repulsion:
        kExp                           1.500000    1.000000
        rExp                           1.000000
      * Coulomb:
        alpha                          2.000000
        third order                    shell-resolved
        anisotropic                    true
        a3                             3.000000
        a5                             4.000000
        cn-shift                       1.200000
        cn-exp                         4.000000
        max-rad                        5.000000

q/qsh data taken from xtbrestart
CAMM data taken from xtbrestart

          ...................................................
          :                      SETUP                      :
          :.................................................:
          :  # basis functions                   8          :
          :  # atomic orbitals                   8          :
          :  # shells                            4          :
          :  # electrons                        10          :
          :  max. iterations                   250          :
          :  Hamiltonian                  GFN2-xTB          :
          :  restarted?                       true          :
          :  GBSA solvation                  false          :
          :  PC potential                    false          :
          :  electronic temp.          300.0000000     K    :
          :  accuracy                    1.0000000          :
          :  -> integral cutoff          0.2500000E+02      :
          :  -> integral neglect         0.1000000E-07      :
          :  -> SCF convergence          0.1000000E-05 Eh   :
          :  -> wf. convergence          0.1000000E-03 e    :
          :  Broyden damping             0.4000000          :
          ...................................................

 iter      E             dE          RMSdq      gap      omega  full diag
   1     -5.8504638 -0.585046E+01  0.224E-11    4.13       0.0  T
   2     -5.8504638  0.532907E-14  0.135E-11    4.13  100000.0  T
   3     -5.8504638  0.177636E-14  0.467E-13    4.13  100000.0  T

   *** convergence criteria satisfied after 3 iterations ***

         #    Occupation            Energy/Eh            Energy/eV
      -------------------------------------------------------------
         1        2.0000           -0.7172816             -19.5182
         2        2.0000           -0.5734672             -15.6048
         3        2.0000           -0.5734672             -15.6048
         4        2.0000           -0.5698360             -15.5060
         5        2.0000           -0.4514204             -12.2838 (HOMO)
         6                         -0.2997000              -8.1553 (LUMO)
         7                         -0.2997000              -8.1553
         8                          0.7707536              20.9733
      -------------------------------------------------------------
                  HL-Gap            0.1517204 Eh            4.1285 eV
             Fermi-level           -0.3755602 Eh          -10.2195 eV

 SCC (total)                   0 d,  0 h,  0 min,  0.007 sec
 SCC setup                      ...        0 min,  0.006 sec ( 85.871%)
 Dispersion                     ...        0 min,  0.000 sec (  0.359%)
 classical contributions        ...        0 min,  0.000 sec (  0.157%)
 integral evaluation            ...        0 min,  0.000 sec (  1.232%)
 iterations                     ...        0 min,  0.001 sec (  9.103%)
 molecular gradient             ...        0 min,  0.000 sec (  2.338%)
 printout                       ...        0 min,  0.000 sec (  0.661%)

         :::::::::::::::::::::::::::::::::::::::::::::::::::::
         ::                     SUMMARY                     ::
         :::::::::::::::::::::::::::::::::::::::::::::::::::::
         :: total energy              -5.763935420216 Eh    ::
         :: gradient norm              0.000000001013 Eh/a0 ::
         :: HOMO-LUMO gap              4.128521621895 eV    ::
         ::.................................................::
         :: SCC energy                -5.850463770366 Eh    ::
         :: -> isotropic ES            0.000102468589 Eh    ::
         :: -> anisotropic ES          0.000342705953 Eh    ::
         :: -> anisotropic XC          0.027046201736 Eh    ::
         :: -> dispersion             -0.000255719440 Eh    ::
         :: repulsion energy           0.086528350150 Eh    ::
         :: add. restraining           0.000000000000 Eh    ::
         :: total charge               0.000000000000 e     ::
         :::::::::::::::::::::::::::::::::::::::::::::::::::::

           ------------------------------------------------- 
          |                Numerical Hessian                |
           ------------------------------------------------- 
step length          :   0.00500
SCC accuracy         :   0.30000
Hessian scale factor :   1.00000
frozen atoms in %    :   0.00000    0
RMS gradient         :   0.00000

writing file <hessian>.

 vibrational frequencies (cm⁻¹)
eigval :        0.00     0.00     0.00     0.00     0.00  2437.58
           -------------------------------------------------
          |                Property Printout                |
           -------------------------------------------------

    * Orbital Energies and Occupations

         #    Occupation            Energy/Eh            Energy/eV
      -------------------------------------------------------------
         1        2.0000           -0.7172816             -19.5182
         2        2.0000           -0.5734672             -15.6048
         3        2.0000           -0.5734672             -15.6048
         4        2.0000           -0.5698360             -15.5060
         5        2.0000           -0.4514204             -12.2838 (HOMO)
         6                         -0.2997000              -8.1553 (LUMO)
         7                         -0.2997000              -8.1553
         8                          0.7707536              20.9733
      -------------------------------------------------------------
                  HL-Gap            0.1517204 Eh            4.1285 eV
             Fermi-level           -0.3755602 Eh          -10.2195 eV

     #   Z          covCN         q      C6AA      α(0)
     1   7 N        0.981    -0.000    20.943     6.584
     2   7 N        0.981     0.000    20.943     6.584

 Mol. C6AA /au·bohr⁶  :         83.773341
 Mol. C8AA /au·bohr⁸  :       1848.107227
 Mol. α(0) /au        :         13.167612


Wiberg/Mayer (AO) data.
largest (>0.10) Wiberg bond orders for each atom

 ---------------------------------------------------------------------------
     #   Z sym  total        # sym  WBO       # sym  WBO       # sym  WBO
 ---------------------------------------------------------------------------
     1   7 N    3.000 --     2 N    3.000
     2   7 N    3.000 --     1 N    3.000
 ---------------------------------------------------------------------------

Topologies differ in total number of bonds
Writing topology from bond orders to xtbtopo.mol

molecular dipole:
                 x           y           z       tot (Debye)
 q only:        0.000      -0.000       0.000
   full:       -0.000       0.000      -0.000       0.000
molecular quadrupole (traceless):
                xx          xy          yy          xz          yz          zz
 q only:       -0.000       0.000       0.000      -0.000       0.000      -0.000
  q+dip:       -0.113       0.035       0.181      -0.275       0.032      -0.068
   full:       -0.515       0.160       0.827      -1.255       0.148      -0.312

           -------------------------------------------------
          |               Frequency Printout                |
           -------------------------------------------------
 vibrational frequencies (cm⁻¹)
eigval :        0.00     0.00     0.00     0.00     0.00  2437.58
 reduced masses (amu)
   1: 14.01   2: 14.01   3: 14.01   4: 14.01   5: 14.01   6: 14.01
 IR intensities (km·mol⁻¹)
   1:  0.00   2:  0.00   3:  0.00   4:  0.00   5:  0.00   6:  0.00
 Raman intensities (amu)
   1:  0.00   2:  0.00   3:  0.00   4:  0.00   5:  0.00   6:  0.00
 output can be read by thermo (or use thermo option).
 writing <g98.out> molden fake output.
 recommended (thermochemical) frequency scaling factor: 1.0
           -------------------------------------------------
          |             Thermodynamic Functions             |
           -------------------------------------------------

Molecule has the following symmetry elements: (i) (Cinf) (C2) 2*(sigma) 
It seems to be the Dinfh point group
din symmetry found (for desy threshold:  0.10E+00) used in thermo

          ...................................................
          :                      SETUP                      :
          :.................................................:
          :  # frequencies                           1      :
          :  # imaginary freq.                       0      :
          :  linear?                              true      :
          :  only rotor calc.                    false      :
          :  symmetry                              din      :
          :  rotational number                       2      :
          :  scaling factor                  1.0000000      :
          :  rotor cutoff                   50.0000000 cm⁻¹ :
          :  imag. cutoff                  -20.0000000 cm⁻¹ :
          :.................................................:

    mode    ω/cm⁻¹     T·S(HO)/kcal·mol⁻¹    T·S(FR)/kcal·mol⁻¹   T·S(vib)
   ------------------------------------------------------------------------
   ------------------------------------------------------------------------

   temp. (K)  partition function   enthalpy   heat capacity  entropy
                                   cal/mol     cal/K/mol   cal/K/mol   J/K/mol
 298.15  VIB   1.00                    0.054      0.002      0.000
         ROT   51.9                  592.502      1.987      9.836
         INT   51.9                  592.556      1.989      9.836
         TR   0.143E+27             1481.254      4.968     35.909
         TOT                        2073.8098     6.9576    45.7451   191.3974

       T/K    H(0)-H(T)+PV         H(T)/Eh          T*S/Eh         G(T)/Eh
   ------------------------------------------------------------------------
    298.15    0.330483E-02    0.885805E-02    0.217350E-01   -0.128769E-01
   ------------------------------------------------------------------------

         :::::::::::::::::::::::::::::::::::::::::::::::::::::
         ::                  THERMODYNAMIC                  ::
         :::::::::::::::::::::::::::::::::::::::::::::::::::::
         :: total free energy          -5.776812338386 Eh   ::
         ::.................................................::
         :: total energy               -5.763935420216 Eh   ::
         :: zero point energy           0.005553218888 Eh   ::
         :: G(RRHO) w/o ZPVE           -0.018430137058 Eh   ::
         :: G(RRHO) contrib.           -0.012876918170 Eh   ::
         :::::::::::::::::::::::::::::::::::::::::::::::::::::

           -------------------------------------------------
          | TOTAL ENERGY               -5.763935420216 Eh   |
          | TOTAL ENTHALPY             -5.755077375102 Eh   |
          | TOTAL FREE ENERGY          -5.776812338386 Eh   |
          | GRADIENT NORM               0.000000003626 Eh/α |
          | HOMO-LUMO GAP               4.128521621897 eV   |
           -------------------------------------------------

------------------------------------------------------------------------
 * finished run on 2022/08/17 at 10:06:15.965     
------------------------------------------------------------------------
 total:
 * wall-time:     0 d,  0 h,  0 min,  0.101 sec
 *  cpu-time:     0 d,  0 h,  0 min,  0.557 sec
 * ratio c/w:     5.526 speedup
 SCF:
 * wall-time:     0 d,  0 h,  0 min,  0.007 sec
 *  cpu-time:     0 d,  0 h,  0 min,  0.042 sec
 * ratio c/w:     5.998 speedup
 analytical hessian:
 * wall-time:     0 d,  0 h,  0 min,  0.010 sec
 *  cpu-time:     0 d,  0 h,  0 min,  0.060 sec
 * ratio c/w:     5.784 speedup

