2
 energy: -5.622858806289 gnorm: 0.442502829120 xtb: 6.5.1 (579679a)
N           -0.90419000000000        0.33430000000000       -0.82831000000000
N            0.13562000000000        0.21190000000000        0.13096000000000
2
 energy: -5.757181941798 gnorm: 0.181166025421 xtb: 6.5.1 (579679a)
N           -0.80551524030045        0.32268461777899       -0.73727823771940
N            0.03694524030045        0.22351538222101        0.03992823771940
2
 energy: -5.703889365347 gnorm: 0.846800312207 xtb: 6.5.1 (579679a)
N           -0.74091356508149        0.31508010825629       -0.67768037946906
N           -0.02765643491851        0.23111989174371       -0.01966962053094
2
 energy: -5.763238014189 gnorm: 0.063668926043 xtb: 6.5.1 (579679a)
N           -0.79226114171127        0.32112442729485       -0.72505075466611
N            0.02369114171127        0.22507557270515        0.02770075466611
2
 energy: -5.763826864925 gnorm: 0.025742190983 xtb: 6.5.1 (579679a)
N           -0.78867103203978        0.32070182179597       -0.72173872217501
N            0.02010103203978        0.22549817820403        0.02438872217501
2
 energy: -5.763934986791 gnorm: 0.001653944222 xtb: 6.5.1 (579679a)
N           -0.78623449243322        0.32041500742811       -0.71949090829711
N            0.01766449243322        0.22578499257189        0.02214090829711
2
 energy: -5.763935296023 gnorm: 0.000884006768 xtb: 6.5.1 (579679a)
N           -0.78645513848141        0.32044098051579       -0.71969446388384
N            0.01788513848141        0.22575901948421        0.02234446388384
2
 energy: -5.763935420216 gnorm: 0.000001306562 xtb: 6.5.1 (579679a)
N           -0.78637828411303        0.32043193369504       -0.71962356238265
N            0.01780828411303        0.22576806630496        0.02227356238265
2
 energy: -5.763935420216 gnorm: 0.000000000879 xtb: 6.5.1 (579679a)
N           -0.78637817035413        0.32043192030404       -0.71962345743511
N            0.01780817035413        0.22576807969596        0.02227345743511
