      -----------------------------------------------------------      
     |                   =====================                   |     
     |                           x T B                           |     
     |                   =====================                   |     
     |                         S. Grimme                         |     
     |          Mulliken Center for Theoretical Chemistry        |     
     |                    University of Bonn                     |     
      -----------------------------------------------------------      

   * xtb version 6.2.2 (655bc02) compiled by 'ehlert@majestix' on 2019-12-09

   This program is distributed in the hope that it will be useful,
   but WITHOUT ANY WARRANTY; without even the implied warranty of
   MERCHANTABILITY or FITNESS FOR A PARTICULAR PURPOSE.
   
   FOR NON-COMMERCIAL, ACADEMIA USE ONLY.
   
   Cite this work as:
   * S. Grimme, C. Bannwarth, P. Shushkov, J. Chem. Theory Comput., 2017,
     13, 1989-2009. DOI: 10.1021/acs.jctc.7b00118
   * C. Bannwarth, S. Ehlert and S. Grimme., J. Chem. Theory Comput., 2019,
     15, 1652-1671. DOI: 10.1021/acs.jctc.8b01176
   * P. Pracht, E. Caldeweyher, S. Ehlert, S. Grimme, ChemRxiv, 2019, preprint.
     DOI: 10.26434/chemrxiv.8326202.v1
   
   for DFT-D4:
   * E. Caldeweyher, C. Bannwarth and S. Grimme, J. Chem. Phys., 2017,
     147, 034112. DOI: 10.1063/1.4993215
   * E. Caldeweyher, S. Ehlert, A. Hansen, H. Neugebauer, S. Spicher,
     C. Bannwarth and S. Grimme, J. Chem. Phys., 2019, 150, 154122.
     DOI: 10.1063/1.5090222
   
   for sTDA-xTB:
   * S. Grimme and C. Bannwarth, J. Chem. Phys., 2016, 145, 054103.
     DOI: 10.1063/1.4959605
   
   in the mass-spec context:
   * V. Asgeirsson, C. Bauer and S. Grimme, Chem. Sci., 2017, 8, 4879.
     DOI: 10.1039/c7sc00601b
   
   for metadynamics refer to:
   * S. Grimme, J. Chem. Theory Comput., 2019, 155, 2847-2862
     DOI: 10.1021/acs.jctc.9b00143
   
   with help from (in alphabetical order)
   C. Bannwarth, F. Bohle, G. Brandenburg, E. Caldeweyher, M. Checinski,
   S. Dohm, S. Ehlert, S. Ehrlich, F. März, H. Neugebauer, J. Pisarek,
   P. Pracht, P. Shushkov, and S. Spicher.
   
 * started run on 2022/07/13 at 14:44:07.404     

           -------------------------------------------------
          |                Calculation Setup                |
           -------------------------------------------------

          program call               : xtb -c 1 -u 1 input.xyz
          coordinate file            : input.xyz
          omp threads                :                     8
          number of atoms            :                    12
          number of electrons        :                    29
          charge                     :                     1
          spin                       :                   0.5
          first test random number   :      0.37886346979225


########################################################################
# WARNING! Please study the warnings concerning your input carefully
#  - XTBHOME is not set, using HOME instead
#  - XTBPATH is not set, using XTBHOME instead
########################################################################

           ------------------------------------------------- 
          |                 G F N 2 - x T B                 |
          | Geometry, Frequencies, Noncovalent interactions |
          |            JCTC 2019 parametrisation            |
           ------------------------------------------------- 
             k(s)              :                1.8500
             k(p)              :                2.2300
             k(d)              :                2.2300
             k(f)              :                2.0000
             kEN (H0ij)        :               -2.0000
             D4 a1             :                0.5200
             D4 a2             :                5.0000
             D4 s6             :                1.0000
             D4 s8             :                2.7000
             D4 s9             :                5.0000
             alphaj            :                2.0000

  Z AO/shell   Hii/eV     exponent
  1     Wed Apr 25 08:07:45 CEST 2018   EN: 2.200 GM2: 0.406  GM3: 0.0800  RAES: 1.40
     1s    -10.707211    1.230000
  6     Wed Apr 25 08:07:45 CEST 2018   EN: 2.550 GM2: 0.538  GM3: 0.1500  RAES: 3.00
     2s    -13.970922    2.096432
     2p    -10.063292    1.800000

           ------------------------------------------------- 
          |        Self-Consistent Charge Iterations        |
           ------------------------------------------------- 

          ...................................................
          :                      SETUP                      :
          :.................................................:
          :  # basis functions                  30          :
          :  # atomic orbitals                  30          :
          :  # shells                           18          :
          :  # electrons                        29          :
          :  max. iterations                   250          :
          :  Hamiltonian                  GFN2-xTB          :
          :  restarted?                      false          :
          :  GBSA solvation                  false          :
          :  PC potential                    false          :
          :  electronic temp.          300.0000000     K    :
          :  accuracy                    1.0000000          :
          :  -> integral cutoff          0.2500000E+02      :
          :  -> integral neglect         0.1000000E-07      :
          :  -> SCF convergence          0.1000000E-05 Eh   :
          :  -> wf. convergence          0.1000000E-03 e    :
          :  Broyden damping             0.4000000          :
          ...................................................

 iter      E             dE          RMSdq      gap      omega  full diag
   1    -15.6609953 -0.156610E+02  0.631E+00    5.01       0.0  T
   2    -15.6729635 -0.119682E-01  0.379E+00    5.01       1.0  T
   3    -15.6662996  0.666390E-02  0.153E+00    4.92       1.0  T
   4    -15.6734188 -0.711922E-02  0.871E-01    5.00       1.0  T
   5    -15.6740341 -0.615303E-03  0.241E-01    5.00       1.0  T
   6    -15.6741197 -0.855687E-04  0.991E-02    5.00       1.0  T
   7    -15.6741193  0.385626E-06  0.713E-02    5.00       1.0  T
   8    -15.6741408 -0.215436E-04  0.251E-02    5.00       1.2  T
   9    -15.6741417 -0.854175E-06  0.121E-02    5.00       2.4  T
  10    -15.6741418 -0.164067E-06  0.738E-03    5.00       3.9  T
  11    -15.6741419 -0.993751E-07  0.214E-04    5.00     135.1  T
  12    -15.6741419 -0.176730E-10  0.220E-04    5.00     131.2  T

   *** convergence criteria satisfied after 12 iterations ***

         #    Occupation            Energy/Eh            Energy/eV
      -------------------------------------------------------------
         1        2.0000           -0.8836323             -24.0449
       ...           ...                  ...                  ...
         9        2.0000           -0.7081074             -19.2686
        10        2.0000           -0.6990148             -19.0212
        11        2.0000           -0.6990148             -19.0212
        12        1.8453           -0.6416142             -17.4592
        13        1.8453           -0.6416141             -17.4592
        14        1.6547           -0.6406087             -17.4318
        15        1.6547           -0.6406086             -17.4318 (HOMO)
        16                         -0.4568946             -12.4327 (LUMO)
        17                         -0.4568946             -12.4327
        18                         -0.3244279              -8.8281
        19                         -0.0864881              -2.3535
        20                         -0.0732186              -1.9924
       ...                                ...                  ...
        30                          0.4448333              12.1045
      -------------------------------------------------------------
                  HL-Gap            0.1837140 Eh            4.9991 eV
             Fermi-level           -0.5943762 Eh          -16.1738 eV

 SCC (total)                   0 d,  0 h,  0 min,  0.006 sec
 SCC setup                      ...        0 min,  0.000 sec (  1.585%)
 Dispersion                     ...        0 min,  0.000 sec (  1.223%)
 integral evaluation            ...        0 min,  0.001 sec (  9.512%)
 zeroth order Hamiltonian       ...        0 min,  0.000 sec (  0.628%)
 iterations                     ...        0 min,  0.003 sec ( 48.390%)
 molecular gradient             ...        0 min,  0.001 sec ( 14.712%)
 printout                       ...        0 min,  0.001 sec ( 23.492%)

         :::::::::::::::::::::::::::::::::::::::::::::::::::::
         ::                     SUMMARY                     ::
         :::::::::::::::::::::::::::::::::::::::::::::::::::::
         :: total energy             -15.357234835766 Eh    ::
         :: gradient norm              0.022515866055 Eh/a0 ::
         :: HOMO-LUMO gap              4.999113471826 eV    ::
         ::.................................................::
         :: SCC energy               -15.674141948734 Eh    ::
         :: -> isotropic ES            0.100201839384 Eh    ::
         :: -> anisotropic ES         -0.020638693619 Eh    ::
         :: -> anisotropic XC          0.016136021322 Eh    ::
         :: -> dispersion             -0.006767658520 Eh    ::
         :: repulsion energy           0.316900344852 Eh    ::
         :: add. restraining           0.000000000000 Eh    ::
         :::::::::::::::::::::::::::::::::::::::::::::::::::::

           -------------------------------------------------
          |                Property Printout                |
           -------------------------------------------------

    * Orbital Energies and Occupations

         #    Occupation            Energy/Eh            Energy/eV
      -------------------------------------------------------------
         1        2.0000           -0.8836323             -24.0449
       ...           ...                  ...                  ...
         3        2.0000           -0.8469143             -23.0457
         4        2.0000           -0.8006949             -21.7880
         5        2.0000           -0.8006949             -21.7880
         6        2.0000           -0.7531700             -20.4948
         7        2.0000           -0.7295664             -19.8525
         8        2.0000           -0.7145912             -19.4450
         9        2.0000           -0.7081074             -19.2686
        10        2.0000           -0.6990148             -19.0212
        11        2.0000           -0.6990148             -19.0212
        12        1.8453           -0.6416142             -17.4592
        13        1.8453           -0.6416141             -17.4592
        14        1.6547           -0.6406087             -17.4318
        15        1.6547           -0.6406086             -17.4318 (HOMO)
        16                         -0.4568946             -12.4327 (LUMO)
        17                         -0.4568946             -12.4327
        18                         -0.3244279              -8.8281
        19                         -0.0864881              -2.3535
        20                         -0.0732186              -1.9924
        21                         -0.0360297              -0.9804
        22                         -0.0360295              -0.9804
        23                         -0.0158131              -0.4303
        24                         -0.0158131              -0.4303
        25                          0.1884818               5.1289
        26                          0.1884819               5.1289
       ...                                ...                  ...
        30                          0.4448333              12.1045
      -------------------------------------------------------------
                  HL-Gap            0.1837140 Eh            4.9991 eV
             Fermi-level           -0.5943762 Eh          -16.1738 eV

     #   Z        covCN         q      C6AA      α(0)
     1   6 C      2.920     0.028    27.386     8.582
     2   6 C      2.920     0.028    27.386     8.582
     3   6 C      2.920     0.028    27.386     8.582
     4   6 C      2.920     0.028    27.386     8.582
     5   6 C      2.920     0.028    27.386     8.582
     6   6 C      2.920     0.028    27.386     8.582
     7   1 H      0.926     0.139     1.468     1.895
     8   1 H      0.926     0.139     1.468     1.895
     9   1 H      0.926     0.139     1.468     1.895
    10   1 H      0.926     0.139     1.468     1.895
    11   1 H      0.926     0.139     1.468     1.895
    12   1 H      0.926     0.139     1.468     1.895

 Mol. C6AA /au·bohr⁶  :       1494.654462
 Mol. C8AA /au·bohr⁸  :      37677.401529
 Mol. α(0) /au        :         62.858443


Wiberg/Mayer (AO) data.
largest (>0.10) Wiberg bond orders for each atom
          total WBO             WBO to atom ...
     1  C   3.719        C    6 1.357    C    2 1.357    H    7 0.926
     2  C   3.719        C    1 1.357    C    3 1.357    H    8 0.926
     3  C   3.719        C    4 1.357    C    2 1.357    H    9 0.926
     4  C   3.719        C    3 1.357    C    5 1.357    H   10 0.926
     5  C   3.719        C    4 1.357    C    6 1.357    H   11 0.926
     6  C   3.719        C    1 1.357    C    5 1.357    H   12 0.926
     7  H   0.946        C    1 0.926
     8  H   0.946        C    2 0.926
     9  H   0.946        C    3 0.926
    10  H   0.946        C    4 0.926
    11  H   0.946        C    5 0.926
    12  H   0.946        C    6 0.926

molecular dipole:
                 x           y           z       tot (Debye)
 q only:        0.016       0.012       0.032
   full:        0.016       0.012       0.032       0.096
molecular quadrupole (traceless):
                xx          xy          yy          xz          yz          zz
 q only:        4.808      -0.001       4.808       0.156       0.109      -9.616
  q+dip:        6.593      -0.001       6.594       0.213       0.149     -13.187
   full:        4.830      -0.001       4.831       0.157       0.109      -9.660


           -------------------------------------------------
          | TOTAL ENERGY              -15.357234835766 Eh   |
          | GRADIENT NORM               0.022515866055 Eh/α |
          | HOMO-LUMO GAP               4.999113471826 eV   |
           -------------------------------------------------

------------------------------------------------------------------------
 * finished run on 2022/07/13 at 14:44:07.448     
------------------------------------------------------------------------
 total:
 * wall-time:     0 d,  0 h,  0 min,  0.044 sec
 *  cpu-time:     0 d,  0 h,  0 min,  0.273 sec
 * ratio c/w:     6.257 speedup
 SCF:
 * wall-time:     0 d,  0 h,  0 min,  0.006 sec
 *  cpu-time:     0 d,  0 h,  0 min,  0.046 sec
 * ratio c/w:     7.775 speedup

