[Molden Format]
[Title]
[Atoms] AU
C      1     6 -0.14094491241361E+01  0.22062662228769E+01  0.32779036512930E-01
C      2     6  0.12032784584159E+01  0.23438147280119E+01  0.61897456390288E-01
C      3     6  0.26289414213464E+01  0.14982343513349E+00  0.60761810526603E-01
C      4     6  0.14418765636652E+01 -0.21817157967407E+01  0.30507869654709E-01
C      5     6 -0.11708510488742E+01 -0.23192638297373E+01  0.13894565851145E-02
C      6     6 -0.25965137651689E+01 -0.12527256622297E+00  0.25251048280530E-02
H      7     1 -0.25219492000463E+01  0.39183235981092E+01  0.33662348611532E-01
H      8     1  0.21295917401058E+01  0.41632055460400E+01  0.85503955336624E-01
H      9     1  0.46677547892790E+01  0.25715748981176E+00  0.83485014281986E-01
H     10     1  0.25543773438858E+01 -0.38937725285940E+01  0.29624594091043E-01
H     11     1 -0.20971637993785E+01 -0.41386550571579E+01 -0.22217025536021E-01
H     12     1 -0.46353271953544E+01 -0.23260710378271E+00 -0.20198089031079E-01
[GTO]
           1 0
 s           4   1.00000000000000     
   51.0493630955799      -0.163120632101274     
   8.79112274068875      -0.199110245810007     
  0.706404222589298       0.318820477536558     
  0.269228134134116       0.127065041842404     
 p           4   1.00000000000000     
   5.82636561408000       0.737164515452096     
   1.51068960187200       0.682163716148503     
  0.532564832880000       0.357830539292537     
  0.212023236906000       5.398303027584788E-002
 
           2 0
 s           4   1.00000000000000     
   51.0493630955799      -0.163120632101274     
   8.79112274068875      -0.199110245810007     
  0.706404222589298       0.318820477536558     
  0.269228134134116       0.127065041842404     
 p           4   1.00000000000000     
   5.82636561408000       0.737164515452096     
   1.51068960187200       0.682163716148503     
  0.532564832880000       0.357830539292537     
  0.212023236906000       5.398303027584788E-002
 
           3 0
 s           4   1.00000000000000     
   51.0493630955799      -0.163120632101274     
   8.79112274068875      -0.199110245810007     
  0.706404222589298       0.318820477536558     
  0.269228134134116       0.127065041842404     
 p           4   1.00000000000000     
   5.82636561408000       0.737164515452096     
   1.51068960187200       0.682163716148503     
  0.532564832880000       0.357830539292537     
  0.212023236906000       5.398303027584788E-002
 
           4 0
 s           4   1.00000000000000     
   51.0493630955799      -0.163120632101274     
   8.79112274068875      -0.199110245810007     
  0.706404222589298       0.318820477536558     
  0.269228134134116       0.127065041842404     
 p           4   1.00000000000000     
   5.82636561408000       0.737164515452096     
   1.51068960187200       0.682163716148503     
  0.532564832880000       0.357830539292537     
  0.212023236906000       5.398303027584788E-002
 
           5 0
 s           4   1.00000000000000     
   51.0493630955799      -0.163120632101274     
   8.79112274068875      -0.199110245810007     
  0.706404222589298       0.318820477536558     
  0.269228134134116       0.127065041842404     
 p           4   1.00000000000000     
   5.82636561408000       0.737164515452096     
   1.51068960187200       0.682163716148503     
  0.532564832880000       0.357830539292537     
  0.212023236906000       5.398303027584788E-002
 
           6 0
 s           4   1.00000000000000     
   51.0493630955799      -0.163120632101274     
   8.79112274068875      -0.199110245810007     
  0.706404222589298       0.318820477536558     
  0.269228134134116       0.127065041842404     
 p           4   1.00000000000000     
   5.82636561408000       0.737164515452096     
   1.51068960187200       0.682163716148503     
  0.532564832880000       0.357830539292537     
  0.212023236906000       5.398303027584788E-002
 
           7 0
 s           3   1.00000000000000     
   3.37022769753360       0.273591105889083     
  0.613891182214980       0.264605406538605     
  0.166142911484160       8.246594753408232E-002
 
           8 0
 s           3   1.00000000000000     
   3.37022769753360       0.273591105889083     
  0.613891182214980       0.264605406538605     
  0.166142911484160       8.246594753408232E-002
 
           9 0
 s           3   1.00000000000000     
   3.37022769753360       0.273591105889083     
  0.613891182214980       0.264605406538605     
  0.166142911484160       8.246594753408232E-002
 
          10 0
 s           3   1.00000000000000     
   3.37022769753360       0.273591105889083     
  0.613891182214980       0.264605406538605     
  0.166142911484160       8.246594753408232E-002
 
          11 0
 s           3   1.00000000000000     
   3.37022769753360       0.273591105889083     
  0.613891182214980       0.264605406538605     
  0.166142911484160       8.246594753408232E-002
 
          12 0
 s           3   1.00000000000000     
   3.37022769753360       0.273591105889083     
  0.613891182214980       0.264605406538605     
  0.166142911484160       8.246594753408232E-002
 
[MO]
Sym=     1a
Ene=  -0.641656293215968     
Spin= Alpha
Occup=     2.00000000
           1 -0.268630355884113     
           2 -5.524490991147896E-002
           3  8.501790067367522E-002
           4  4.402002776271078E-005
           5 -0.268630312822875     
           6  4.599916339913344E-002
           7  9.034793538069714E-002
           8  1.172365086987897E-003
           9 -0.268630323695591     
          10  0.101244077074250     
          11  5.330034747305511E-003
          12  1.128338906006701E-003
          13 -0.268630326260401     
          14  5.524492370512587E-002
          15 -8.501789395765931E-002
          16 -4.402018520614099E-005
          17 -0.268630347822048     
          18 -4.599916501840233E-002
          19 -9.034793695421206E-002
          20 -1.172365134976701E-003
          21 -0.268630348737632     
          22 -0.101244083317911     
          23 -5.330039031783220E-003
          24 -1.128339028463118E-003
          25 -4.670198350795306E-002
          26 -4.670199302621823E-002
          27 -4.670199519625436E-002
          28 -4.670199314153452E-002
          29 -4.670199279220433E-002
          30 -4.670198596785782E-002
Sym=     2a
Ene=  -0.611493014023283     
Spin= Alpha
Occup=     2.00000000
           1 -0.155360654448477     
           2 -0.130281967343952     
           3 -7.198550038630658E-002
           4 -1.940584053804457E-003
           5 -0.376543345874534     
           6 -2.887010287726418E-003
           7  3.036634944918215E-002
           8  1.968329958736117E-004
           9 -0.221182686680674     
          10  2.206105322437361E-002
          11 -0.131147268383155     
          12 -7.468236884050796E-004
          13  0.155360675457717     
          14 -0.130281977910417     
          15 -7.198548058857678E-002
          16 -1.940583776741288E-003
          17  0.376543339293699     
          18 -2.886989429539368E-003
          19  3.036632649004773E-002
          20  1.968331570278043E-004
          21  0.221182615562171     
          22  2.206104585671561E-002
          23 -0.131147260673238     
          24 -7.468236238684548E-004
          25 -4.911490269621921E-002
          26 -0.119038430083324     
          27 -6.992352989068716E-002
          28  4.911488746639667E-002
          29  0.119038412525201     
          30  6.992350402187447E-002
Sym=     3a
Ene=  -0.611493013098186     
Spin= Alpha
Occup=     2.00000000
           1  0.345097253716127     
           2 -4.318632991019122E-002
           3 -5.620821312785255E-002
           4 -8.860092009185366E-004
           5  3.800233258759239E-002
           6 -0.145545366118398     
           7  7.119876565812788E-002
           8 -1.030412286353112E-003
           9 -0.307094947601393     
          10  1.596142868313278E-002
          11  9.613456496075751E-002
          12  8.928398264212175E-004
          13 -0.345097273103030     
          14 -4.318631456077923E-002
          15 -5.620820325551713E-002
          16 -8.860094980260603E-004
          17 -3.800236687207609E-002
          18 -0.145545370655209     
          19  7.119879330332562E-002
          20 -1.030412114605105E-003
          21  0.307094913755218     
          22  1.596144126967689E-002
          23  9.613457826100590E-002
          24  8.928401385500545E-004
          25  0.109097184857823     
          26  1.201383910408645E-002
          27 -9.708338199904534E-002
          28 -0.109097236234269     
          29 -1.201387785922953E-002
          30  9.708333163217450E-002
Sym=     4a
Ene=  -0.569002811325633     
Spin= Alpha
Occup=     2.00000000
           1 -9.347435461971949E-002
           2  0.220236840776493     
           3  0.109001890270214     
           4  3.185352387999977E-003
           5  0.290106721612665     
           6 -5.827738376627120E-003
           7  0.102567942676408     
           8  7.068525366259651E-004
           9 -0.196632346335771     
          10 -7.020206416786950E-002
          11  0.188920982360520     
          12  6.627481405690200E-004
          13 -9.347433057302464E-002
          14 -0.220236881071890     
          15 -0.109001853791509     
          16 -3.185352733072873E-003
          17  0.290106703086387     
          18  5.827768269358320E-003
          19 -0.102567972019007     
          20 -7.068522719089369E-004
          21 -0.196632337824731     
          22  7.020200984232042E-002
          23 -0.188920952918183     
          24 -6.627485538942754E-004
          25 -5.316168876714963E-002
          26  0.164992690715084     
          27 -0.111830922962210     
          28 -5.316179254062384E-002
          29  0.164992683502833     
          30 -0.111830839015627     
Sym=     5a
Ene=  -0.569002804495499     
Spin= Alpha
Occup=     2.00000000
           1  0.281018880822675     
           2  2.122474695701192E-002
           3  0.116330237149655     
           4  1.100902501365458E-003
           5 -5.955826141567597E-002
           6 -0.232805573823120     
           7  9.810227855988742E-002
           8 -1.766585642630698E-003
           9 -0.221460631962650     
          10 -5.866863618100503E-002
          11 -0.174110871880192     
          12 -1.937009062519065E-003
          13  0.281018903678263     
          14 -2.122470397948397E-002
          15 -0.116330209636070     
          16 -1.100901265653323E-003
          17 -5.955833532271616E-002
          18  0.232805556698591     
          19 -9.810231147669829E-002
          20  1.766585079759219E-003
          21 -0.221460598831982     
          22  5.866861313543284E-002
          23  0.174110888139898     
          24  1.937008730803883E-003
          25  0.159824138644931     
          26 -3.387268831214089E-002
          27 -0.125951551869921     
          28  0.159824157994347     
          29 -3.387264388697403E-002
          30 -0.125951529092225     
Sym=     6a
Ene=  -0.531183237734023     
Spin= Alpha
Occup=     2.00000000
           1  6.412624907809734E-002
           2 -0.123220919983109     
           3  0.189627902269059     
           4  9.797762951848775E-005
           5  6.412617671821688E-002
           6  0.102598643755315     
           7  0.201516343585219     
           8  2.614757360894861E-003
           9  6.412616186126727E-002
          10  0.225819635652136     
          11  1.188831046806835E-002
          12  2.516778855036953E-003
          13  6.412619896377940E-002
          14  0.123220905694214     
          15 -0.189627969288522     
          16 -9.797605097112558E-005
          17  6.412619285049712E-002
          18 -0.102598722133267     
          19 -0.201516302481455     
          20 -2.614755820963929E-003
          21  6.412624225655111E-002
          22 -0.225819555712561     
          23 -1.188829012654231E-002
          24 -2.516775770697672E-003
          25  0.188299106337941     
          26  0.188299114741649     
          27  0.188299137347833     
          28  0.188299140846169     
          29  0.188299111458026     
          30  0.188299095439169     
Sym=     7a
Ene=  -0.495003390932162     
Spin= Alpha
Occup=     2.00000000
           1  0.189612113345507     
           2 -9.080659892287121E-002
           3  0.139744791878915     
           4  7.217789426273076E-005
           5 -0.189612070969260     
           6 -7.560952171902480E-002
           7 -0.148506190960727     
           8 -1.926934262040608E-003
           9  0.189612117384810     
          10  0.166416190870070     
          11  8.761164185414312E-003
          12  1.854714134622742E-003
          13 -0.189612140111203     
          14 -9.080677553929097E-002
          15  0.139744791143712     
          16  7.217489278945055E-005
          17  0.189612054652884     
          18 -7.560935420900931E-002
          19 -0.148506244357699     
          20 -1.926932492659196E-003
          21 -0.189612082767052     
          22  0.166416048094461     
          23  8.761232226467340E-003
          24  1.854712748286553E-003
          25  0.234744876432253     
          26 -0.234745271227705     
          27  0.234745156741697     
          28 -0.234745004109524     
          29  0.234745224721137     
          30 -0.234744994166139     
Sym=     8a
Ene=  -0.489402379244727     
Spin= Alpha
Occup=     2.00000000
           1  5.515878678375949E-009
           2 -0.277758678092020     
           3 -0.180486467912947     
           4 -4.340023771581143E-003
           5 -1.598272500362829E-008
           6  0.295199890705351     
           7 -0.150322494106283     
           8  2.045500166436086E-003
           9 -6.355060648837328E-008
          10 -1.744099613835721E-002
          11  0.330808928829944     
          12  2.294526289755629E-003
          13  7.561435794365453E-008
          14 -0.277758622676827     
          15 -0.180486389286292     
          16 -4.340022577079776E-003
          17 -7.912820059946039E-008
          18  0.295199884575075     
          19 -0.150322604791054     
          20  2.045498664322068E-003
          21  1.025266743530590E-007
          22 -1.744101023208691E-002
          23  0.330809042310600     
          24  2.294526374958734E-003
          25 -2.037342594799815E-007
          26  2.041198705395932E-007
          27  7.909912204102851E-008
          28  7.174226973507934E-008
          29 -7.451737388781913E-008
          30 -1.278815173558105E-007
Sym=     9a
Ene=  -0.476350387393256     
Spin= Alpha
Occup=     2.00000000
           1  2.538728666504989E-002
           2  0.137657811066249     
           3 -5.255261392686997E-002
           4  1.091566289165167E-003
           5  7.650319484825198E-002
           6 -0.147193990154036     
           7 -0.327675982696011     
           8 -4.034701055006218E-003
           9  5.111564389388119E-002
          10 -0.243044992359930     
          11  5.660159282892999E-002
          12 -2.182059689169106E-003
          13 -2.538731207635542E-002
          14  0.137657892729593     
          15 -5.255268055786763E-002
          16  1.091567956692206E-003
          17 -7.650319804549982E-002
          18 -0.147194120520210     
          19 -0.327675907016494     
          20 -4.034698683200797E-003
          21 -5.111556923131234E-002
          22 -0.243044934664521     
          23  5.660151698474005E-002
          24 -2.182057755180748E-003
          25 -9.323448227142234E-002
          26 -0.280955023755217     
          27 -0.187720894826577     
          28  9.323455178855174E-002
          29  0.280955012241541     
          30  0.187720880039564     
Sym=    10a
Ene=  -0.476350378919955     
Spin= Alpha
Occup=     2.00000000
           1 -7.368065744553388E-002
           2 -0.163218719759871     
           3  0.306067554658278     
           4  5.308218391237451E-004
           5 -1.485434162097672E-002
           6  0.111919804723417     
           7  2.118478806766720E-002
           8  1.351237752531105E-003
           9  5.882663411127163E-002
          10 -0.272338461621227     
          11 -7.463755682592560E-002
          12 -3.498441101841132E-003
          13  7.368070577174986E-002
          14 -0.163218636393573     
          15  0.306067594183337     
          16  5.308192899451651E-004
          17  1.485428896019647E-002
          18  0.111919814745968     
          19  2.118474027244382E-002
          20  1.351236465661597E-003
          21 -5.882653636195929E-002
          22 -0.272338533356441     
          23 -7.463745503227023E-002
          24 -3.498438329938153E-003
          25  0.270590272986662     
          26  5.455163621806110E-002
          27 -0.216038290459095     
          28 -0.270590254535018     
          29 -5.455163792114857E-002
          30  0.216038383145084     
Sym=    11a
Ene=  -0.474755509519600     
Spin= Alpha
Occup=     2.00000000
           1 -2.673029009256229E-006
           2 -3.668804964886116E-003
           3 -2.544332898701722E-003
           4  0.340566810041640     
           5 -1.751651795540600E-006
           6 -3.654811009754538E-003
           7 -2.548616731878365E-003
           8  0.340566858251458     
           9  9.308081362294170E-007
          10 -3.665486667081333E-003
          11 -2.558590823440845E-003
          12  0.340566662476366     
          13  2.670801147560837E-006
          14 -3.668804957818756E-003
          15 -2.544330972852696E-003
          16  0.340566730026786     
          17  1.750638387534978E-006
          18 -3.654810883734425E-003
          19 -2.548614397958185E-003
          20  0.340566911817925     
          21 -9.318255266362583E-007
          22 -3.665484628750897E-003
          23 -2.558591803020794E-003
          24  0.340566731077518     
          25  1.026600033227864E-005
          26  6.687297892846366E-006
          27 -3.546062063283748E-006
          28 -1.026549346791183E-005
          29 -6.688477158899798E-006
          30  3.544887357477543E-006
Sym=    12a
Ene=  -0.421397122489720     
Spin= Alpha
Occup=     2.00000000
           1 -4.290651979425803E-003
           2  0.210772260439172     
           3  0.228485119607334     
           4  3.979823047636524E-003
           5  1.488895507207547E-002
           6 -0.187262570266808     
           7 -0.203483861139380     
           8 -3.538468254900032E-003
           9 -1.059835225845156E-002
          10  0.177364664754741     
          11  0.236346929507443     
          12  3.681293020192397E-003
          13 -4.290552878195643E-003
          14 -0.210772361239607     
          15 -0.228485252728267     
          16 -3.979824892383376E-003
          17  1.488890017235723E-002
          18  0.187262711692186     
          19  0.203483850286092     
          20  3.538467301905403E-003
          21 -1.059829395336754E-002
          22 -0.177364698883271     
          23 -0.236346770949180     
          24 -3.681291031168918E-003
          25  8.952103435939901E-002
          26 -0.310648763349564     
          27  0.221127758151077     
          28  8.952105694422097E-002
          29 -0.310648849723195     
          30  0.221127862065800     
Sym=    13a
Ene=  -0.421397089565687     
Spin= Alpha
Occup=     2.00000000
           1 -1.471503692235823E-002
           2 -0.217066324604927     
           3  0.172850119746193     
           4 -1.038285173424006E-003
           5  3.641648301139688E-003
           6  0.242068826936702     
           7 -0.196362471539415     
           8  1.128063607024595E-003
           9  1.107336113175690E-002
          10 -0.209207437767248     
          11  0.206258105324950     
          12 -7.008405609676967E-004
          13 -1.471511018437576E-002
          14  0.217066148055935     
          15 -0.172850023456928     
          16  1.038284792246844E-003
          17  3.641883603856574E-003
          18 -0.242068723621363     
          19  0.196362469033288     
          20 -1.128064093731870E-003
          21  1.107325481707120E-002
          22  0.209207559744382     
          23 -0.206258016198801     
          24  7.008399353147735E-004
          25  0.307021514857185     
          26 -7.598320638556652E-002
          27 -0.231038092181536     
          28  0.307021304166546     
          29 -7.598317390264871E-002
          30 -0.231038258088110     
Sym=    14a
Ene=  -0.402525671768518     
Spin= Alpha
Occup=     2.00000000
           1  2.324954282471940E-007
           2 -5.565948710340566E-003
           3 -3.883299429362024E-003
           4  0.517715038757802     
           5  1.053473288401725E-007
           6 -1.538100966106860E-003
           7 -1.074616405465518E-003
           8  0.143133655476304     
           9  1.218591528141317E-007
          10  4.026389110732763E-003
          11  2.811308389842461E-003
          12 -0.374581448804727     
          13  2.345474392187717E-007
          14  5.565951786771609E-003
          15  3.883295364913951E-003
          16 -0.517715077734385     
          17  1.050377881559785E-007
          18  1.538100961408550E-003
          19  1.074616015470726E-003
          20 -0.143133745900814     
          21  1.220758485438363E-007
          22 -4.026385133402496E-003
          23 -2.811306904295934E-003
          24  0.374581364574620     
          25  9.004431464309154E-007
          26 -5.762195848500498E-007
          27 -4.656972325652285E-007
          28  9.013372337915758E-007
          29 -5.758245680559565E-007
          30 -4.664263789394062E-007
Sym=    15a
Ene=  -0.402525662236245     
Spin= Alpha
Occup=     2.00000000
           1  7.407560144645191E-008
           2 -1.437334168277263E-003
           3 -1.002943281143221E-003
           4  0.133626355814929     
           5  1.549674374134604E-007
           6 -5.537090071789970E-003
           7 -3.864700768353892E-003
           8  0.515167654964944     
           9 -1.947191797294754E-008
          10 -4.102262946547500E-003
          11 -2.863089973211180E-003
          12  0.381541266334135     
          13  7.460278298651953E-008
          14  1.437335629605621E-003
          15  1.002942676270329E-003
          16 -0.133626384510248     
          17  1.550579152001593E-007
          18  5.537087562311471E-003
          19  3.864697517779941E-003
          20 -0.515167645671348     
          21 -1.923507156523250E-008
          22  4.102258489922410E-003
          23  2.863088187533575E-003
          24 -0.381541105200805     
          25  5.747214937681273E-008
          26  7.073911853282171E-007
          27 -8.299886423434118E-007
          28  5.770009792965499E-008
          29  7.081893995011095E-007
          30 -8.294888123189775E-007
Sym=    16a
Ene=  -0.221195501107583     
Spin= Alpha
Occup=     0.00000000
           1  1.710164816009521E-007
           2 -1.961538102089833E-003
           3 -1.368882379138013E-003
           4  0.182461254186915     
           5 -2.925165215130060E-007
           6  6.769985753374795E-003
           7  4.724933711153814E-003
           8 -0.629794276508191     
           9  7.071020396010548E-009
          10 -4.808969517169233E-003
          11 -3.356305146297215E-003
          12  0.447333008234404     
          13 -1.722733954642736E-007
          14 -1.961536756058752E-003
          15 -1.368879859261773E-003
          16  0.182461153585070     
          17  2.938666329078800E-007
          18  6.769981401947050E-003
          19  4.724929488844514E-003
          20 -0.629794081912247     
          21 -7.919986078631373E-009
          22 -4.808965783270129E-003
          23 -3.356302418035478E-003
          24  0.447332888412112     
          25 -1.033268030865892E-007
          26  2.455795796775826E-007
          27  1.058022498829184E-007
          28  1.039371788114234E-007
          29 -2.459737083538269E-007
          30 -1.054916110392552E-007
Sym=    17a
Ene=  -0.221195449617471     
Spin= Alpha
Occup=     0.00000000
           1 -4.600616760590329E-007
           2  6.685404260090765E-003
           3  4.665402040612449E-003
           4 -0.621879513276225     
           5  2.272806488420385E-007
           6 -1.643864917927446E-003
           7 -1.147387330643264E-003
           8  0.152923593239473     
           9 -2.629797119242851E-007
          10 -5.041257169856342E-003
          11 -3.518562215031369E-003
          12  0.468955982819858     
          13  4.643653196001438E-007
          14  6.685410047290971E-003
          15  4.665400528779269E-003
          16 -0.621879794941079     
          17 -2.278308108083099E-007
          18 -1.643870481031372E-003
          19 -1.147388697396206E-003
          20  0.152923979037909     
          21  2.617691112554305E-007
          22 -5.041252514025090E-003
          23 -3.518561829949099E-003
          24  0.468955785842709     
          25  3.651966687778533E-007
          26 -4.305507516042163E-008
          27  8.219028262807096E-008
          28 -3.672953456953390E-007
          29  4.309735717080066E-008
          30 -8.193247181305422E-008
Sym=    18a
Ene=  -8.992182933271506E-002
Spin= Alpha
Occup=     0.00000000
           1 -4.699521553776060E-007
           2  5.465016368667508E-003
           3  3.813635842582549E-003
           4 -0.508356299823594     
           5  3.116056069007452E-007
           6 -5.464731730585927E-003
           7 -3.813725217239410E-003
           8  0.508356014757537     
           9  1.701742659132827E-007
          10  5.464941262904990E-003
          11  3.813921996526069E-003
          12 -0.508355852138607     
          13 -4.765526047047518E-007
          14 -5.465014826580099E-003
          15 -3.813629907264982E-003
          16  0.508355954364184     
          17  3.160584449573671E-007
          18  5.464731477598714E-003
          19  3.813724355126616E-003
          20 -0.508356101420882     
          21  1.657088282031247E-007
          22 -5.464944578807229E-003
          23 -3.813925137610384E-003
          24  0.508356333261895     
          25  3.902519632035012E-007
          26 -2.521155688693257E-007
          27 -1.352308200758925E-007
          28  3.956564818067603E-007
          29 -2.550704854639751E-007
          30 -1.322729198409152E-007
Sym=    19a
Ene=   0.118017770840039     
Spin= Alpha
Occup=     0.00000000
           1 -0.322034255275041     
           2  0.159646684158166     
           3 -0.245683915822515     
           4 -1.266995447754038E-004
           5 -0.322033512080779     
           6 -0.132927036616105     
           7 -0.261085995524564     
           8 -3.387538510532860E-003
           9 -0.322034192284797     
          10 -0.292573139220563     
          11 -1.540262882410704E-002
          12 -3.260833169819896E-003
          13 -0.322033226419414     
          14 -0.159645525604358     
          15  0.245683403940834     
          16  1.267040319566158E-004
          17 -0.322034515414316     
          18  0.132928225329984     
          19  0.261086104438820     
          20  3.387550734497486E-003
          21 -0.322033574691130     
          22  0.292574335996659     
          23  1.540251836740258E-002
          24  3.260843836270933E-003
          25  0.461693916085312     
          26  0.461692304788413     
          27  0.461692582187185     
          28  0.461692194149284     
          29  0.461693550240049     
          30  0.461693429676913     
Sym=    20a
Ene=   0.137710141958969     
Spin= Alpha
Occup=     0.00000000
           1 -0.530532191175375     
           2  2.996094360212364E-002
           3 -4.610816710182799E-002
           4 -2.322699923091708E-005
           5  0.530532567329931     
           6  2.494687638784442E-002
           7  4.899820223024015E-002
           8  6.353743830274164E-004
           9 -0.530532212971906     
          10 -5.490741672221920E-002
          11 -2.890827763735308E-003
          12 -6.121686703909921E-004
          13  0.530532978105471     
          14  2.996127737779291E-002
          15 -4.610836403597512E-002
          16 -2.321669083315017E-005
          17 -0.530532117476228     
          18  2.494654023964202E-002
          19  4.899791267249353E-002
          20  6.353625809299602E-004
          21  0.530532705111319     
          22 -5.490816538961072E-002
          23 -2.891065359769643E-003
          24 -6.121724723268469E-004
          25  0.386327418986147     
          26 -0.386327297824324     
          27  0.386326939286944     
          28 -0.386328248491377     
          29  0.386326608271309     
          30 -0.386327871475741     
Sym=    21a
Ene=   0.173486400003090     
Spin= Alpha
Occup=     0.00000000
           1  0.225339329505131     
           2 -0.340916182382649     
           3  0.399867783146658     
           4 -6.653812663170193E-004
           5  5.758882455919454E-002
           6 -0.155781425024503     
           7  0.228747618904505     
           8  4.171320224235334E-005
           9 -0.167754004112573     
          10 -0.396526128269858     
          11  0.153983883975590     
          12 -3.107280426703180E-003
          13 -0.225340465625672     
          14 -0.340915449628909     
          15  0.399868745463576     
          16 -6.653720443748456E-004
          17 -5.758741855567114E-002
          18 -0.155781153812186     
          19  0.228748442018814     
          20  4.172289197673133E-005
          21  0.167751528448803     
          22 -0.396525379484810     
          23  0.153984345281463     
          24 -3.107267957510640E-003
          25 -0.614878796211103     
          26 -0.157138390217692     
          27  0.457742518980530     
          28  0.614879807987635     