12
 energy: -15.878843476490 gnorm: 0.019162790025 xtb: 6.2.2 (655bc02)
C          -0.75142000000000    1.17608000000000    0.01735000000000
C           0.64139000000000    1.24941000000000    0.03287000000000
C           1.40139000000000    0.07982000000000    0.03227000000000
C           0.76858000000000   -1.16309000000000    0.01614000000000
C          -0.62423000000000   -1.23642000000000    0.00062000000000
C          -1.38423000000000   -0.06683000000000    0.00122000000000
H          -1.34355000000000    2.08733000000000    0.01782000000000
H           1.13442000000000    2.21778000000000    0.04544000000000
H           2.48655000000000    0.13695000000000    0.04436000000000
H           1.36071000000000   -2.07433000000000    0.01567000000000
H          -1.11726000000000   -2.20479000000000   -0.01195000000000
H          -2.46939000000000   -0.12396000000000   -0.01087000000000
12
 energy: -15.879631066753 gnorm: 0.001906991739 xtb: 6.2.2 (655bc02)
C          -0.74636526205000    1.16830116193012    0.01734634885857
C           0.63717926061979    1.24114091177842    0.03276571992961
C           1.39212445269583    0.07933277610044    0.03216435071062
C           0.76352522653443   -1.15531038702689    0.01614363315065
C          -0.62001939212340   -1.22814953261655    0.00072427521713
C          -1.37496470219364   -0.06634149388207    0.00132564243348
H          -1.33561373606389    2.07511384709725    0.01781409166981
H           1.12781122870784    2.20480153198883    0.04526926792473
H           2.47200535334911    0.13618405140267    0.04419984816497
H           1.35277470029482   -2.06212000256660    0.01567593074880
H          -1.11065151283232   -2.19181007475996   -0.01177926364180
H          -2.45484561693857   -0.12319278944566   -0.01070984516657
12
 energy: -15.879638048898 gnorm: 0.001095428011 xtb: 6.2.2 (655bc02)
C          -0.74553210368595    1.16701920549123    0.01734397107027
C           0.63648429237481    1.23977623181807    0.03274684208323
C           1.39059627718793    0.07925265673453    0.03214795111174
C           0.76269195931292   -1.15402759345044    0.01614603999378
C          -0.61932436249533   -1.22678438269502    0.00074316410683
C          -1.37343641990099   -0.06626083763386    0.00134205404906
H          -1.33404207694102    2.07269341416194    0.01781397869927
H           1.12650186536519    2.20223003348727    0.04523636886020
H           2.46912404485273    0.13603213212889    0.04416755496883
H           1.35120255149281   -2.05970200882195    0.01567601668025
H          -1.10934185051050   -2.18923830125190   -0.01174637627312
H          -2.45196417705261   -0.12304054996877   -0.01067756535033
12
 energy: -15.879640657263 gnorm: 0.000044384489 xtb: 6.2.2 (655bc02)
C          -0.74584842561975    1.16750591465254    0.01734592072735
C           0.63674759764154    1.24029345571697    0.03275472637358
C           1.39117601804857    0.07928315488773    0.03215376840711
C           0.76300828921857   -1.15451438741795    0.01614407087232
C          -0.61958774991138   -1.22730167863749    0.00073526882860
C          -1.37401603980434   -0.06629139334704    0.00133622805412
H          -1.33455816753968    2.07348774544078    0.01781334940342
H           1.12693152194781    2.20307370367024    0.04524674880420
H           2.47006968974255    0.13608189584707    0.04417837110880
H           1.35171840384354   -2.06049587774464    0.01567666152971
H          -1.10977139312629   -2.19008214323194   -0.01175674469850
H          -2.45290974444114   -0.12309038983627   -0.01068836941070
