12
 energy: -15.878620858951 gnorm: 0.022342875541 xtb: 6.2.2 (655bc02)
H           1.34647000000000    0.11433000000000    2.15996000000000
C           0.80952000000000    0.18710000000000    1.20875000000000
C          -0.58040000000000    0.24430000000000    1.19732000000000
H          -1.13732000000000    0.21652000000000    2.13935000000000
C          -1.26278000000000    0.33671000000000   -0.01143000000000
H          -2.35652000000000    0.38163000000000   -0.02044000000000
C          -0.55538000000000    0.37197000000000   -1.20876000000000
H          -1.09236000000000    0.44468000000000   -2.15990000000000
C           0.83452000000000    0.31472000000000   -1.19730000000000
H           1.39117000000000    0.34234000000000   -2.13946000000000
C           1.51693000000000    0.22231000000000    0.01143000000000
H           2.61064000000000    0.17727000000000    0.02049000000000
12
 energy: -15.879604942767 gnorm: 0.006184158361 xtb: 6.2.2 (655bc02)
H           1.33791763962970    0.11552256379946    2.14476965885189
C           0.80638757293046    0.18748201522265    1.20324643410682
C          -0.57721961580977    0.24441060804590    1.19185966969578
H          -1.12839023769729    0.21700135370596    2.12438930759312
C          -1.25652923888271    0.33641598967811   -0.01138883924071
H          -2.33916632818903    0.38099823883908   -0.02029989438016
C          -0.55228682001788    0.37148355745914   -1.20325432908524
H          -1.08383038896485    0.44350086037461   -2.14474911844279
C           0.83132146437826    0.31453994713844   -1.19184932972579
H           1.38238315712853    0.34198918442726   -2.12443742765307
C           1.51063603313076    0.22254265191102    0.01138962857873
H           2.59326676236383    0.17799302939837    0.02033423970142
12
 energy: -15.879640361781 gnorm: 0.000648976194 xtb: 6.2.2 (655bc02)
H           1.33619657346950    0.11571811979057    2.14171171837235
C           0.80614755479377    0.18752888070575    1.20285179282644
C          -0.57700343683381    0.24445656282296    1.19146018375627
H          -1.12657139155905    0.21707351432807    2.12140113217938
C          -1.25609942150686    0.33642862156828   -0.01139111318066
H          -2.33569340887110    0.38082599766879   -0.02028355312211
C          -0.55206068908988    0.37147686486070   -1.20284986288947
H          -1.08211593863956    0.44323950308216   -2.14170805884428
C           0.83109426238446    0.31454809904905   -1.19145282661912
H           1.38062459090063    0.34187957364552   -2.12141937415266
C           1.51019010618554    0.22257473499989    0.01139349607750
H           2.58978119876637    0.17812952747826    0.02029646559635
12
 energy: -15.879640639008 gnorm: 0.000173990018 xtb: 6.2.2 (655bc02)
H           1.33628416367040    0.11573607810385    2.14186426796737
C           0.80627399064281    0.18748611704858    1.20308805542420
C          -0.57715077747839    0.24441387300774    1.19168968331862
H          -1.12664183283873    0.21709771641927    2.12156752978944
C          -1.25638379581517    0.33640382004551   -0.01139899328105
H          -2.33587634226253    0.38087174350628   -0.02028932200082
C          -0.55219366415913    0.37146180571631   -1.20308790217342
H          -1.08219959595101    0.44327444202042   -2.14186145318151
C           0.83123324658809    0.31453352595802   -1.19168828735675
H           1.38071986762405    0.34191643355834   -2.12156707947006
C           1.51046491038930    0.22254602376298    0.01139798028498
H           2.58995982959031    0.17813842085270    0.02029552067899
