 Entering Gaussian System
 *********************************************
 Gaussian 98:
 frequency output generated by the xtb code
 *********************************************
                         Standard orientation:
 --------------------------------------------------------------------
  Center     Atomic     Atomic              Coordinates (Angstroms)
  Number     Number      Type              X           Y           Z
 --------------------------------------------------------------------
    1          7             0       -0.230626    0.813090   -0.169281
    2          1             0        0.781535    0.826929   -0.197184
    3          1             0       -0.553345    0.304628   -0.983381
    4          1             0       -0.553326    1.768974   -0.256403
 --------------------------------------------------------------------
     1 basis functions        1 primitive gaussians
     1 alpha electrons        1 beta electrons
 
 Harmonic frequencies (cm**-1), IR intensities (km*mol⁻¹),
 Raman scattering activities (A**4/amu), Raman depolarization ratios,
 reduced masses (AMU), force constants (mDyne/A) and normal coordinates:
                      1                      2                      3
                        a                      a                      a 
 Frequencies --  1160.1364              1592.7773              1592.8462
 Red. masses --     3.1012                 1.8308                 1.8307
 Frc consts  --     0.0000                 0.0000                 0.0000
 IR Inten    --   211.1104                27.5101                27.4630
 Raman Activ --     0.0000                 0.0000                 0.0000
 Depolar     --     0.0000                 0.0000                 0.0000
 Atom AN      X      Y      Z        X      Y      Z        X      Y      Z
   1   7     0.13   0.17  -0.34    -0.18   0.17   0.01     0.15   0.15   0.13
   2   1    -0.00  -0.24   0.47    -0.02  -0.33  -0.39     0.02  -0.59  -0.10
   3   1    -0.25  -0.33   0.33     0.62  -0.39   0.00     0.04   0.25  -0.14
   4   1    -0.25  -0.06   0.46     0.09   0.08   0.34    -0.62  -0.22  -0.25
                      4                      5                      6
                        a                      a                      a 
 Frequencies --  3425.3767              3477.1985              3477.4267
 Red. masses --     1.2227                 2.0340                 2.0339
 Frc consts  --     0.0000                 0.0000                 0.0000
 IR Inten    --     0.2006                 5.4374                 5.3816
 Raman Activ --     0.0000                 0.0000                 0.0000
 Depolar     --     0.0000                 0.0000                 0.0000
 Atom AN      X      Y      Z        X      Y      Z        X      Y      Z
   1   7    -0.04  -0.05   0.11    -0.06  -0.24  -0.14     0.26  -0.09   0.05
   2   1     0.57  -0.01   0.03     0.17  -0.03  -0.02    -0.76  -0.01   0.01
   3   1    -0.21  -0.32  -0.43     0.25   0.38   0.59    -0.05  -0.14  -0.19
   4   1    -0.21   0.53  -0.01    -0.21   0.54  -0.05    -0.15   0.51  -0.02
