4
 energy: -4.426243987100 gnorm: 0.000160629922 xtb: 6.5.1 (579679a)
N           -0.23054249011012        0.81319878670036       -0.16950195614983
H            0.78156919398608        0.82688591351729       -0.19708490822577
H           -0.55340622792618        0.30453980528594       -0.98334669848914
H           -0.55339663834255        1.76899560116118       -0.25631097853955
4
 energy: -4.426244034418 gnorm: 0.000042762598 xtb: 6.5.1 (579679a)
N           -0.23062992755643        0.81308885917325       -0.16928052116412
H            0.78153095282934        0.82693312808508       -0.19718007999016
H           -0.55334336406108        0.30462650169011       -0.98338234781526
H           -0.55333382360461        1.76897161771633       -0.25640159243475
