      -----------------------------------------------------------      
     |                   =====================                   |     
     |                           x T B                           |     
     |                   =====================                   |     
     |                         S. Grimme                         |     
     |          Mulliken Center for Theoretical Chemistry        |     
     |                    University of Bonn                     |     
      -----------------------------------------------------------      

   * xtb version 6.5.0 (746241f) compiled by 'ehlert@majestix' on 2022-05-15

   xtb is free software: you can redistribute it and/or modify it under
   the terms of the GNU Lesser General Public License as published by
   the Free Software Foundation, either version 3 of the License, or
   (at your option) any later version.
   
   xtb is distributed in the hope that it will be useful,
   but WITHOUT ANY WARRANTY; without even the implied warranty of
   MERCHANTABILITY or FITNESS FOR A PARTICULAR PURPOSE.  See the
   GNU Lesser General Public License for more details.
   
   Cite this work as:
   * C. Bannwarth, E. Caldeweyher, S. Ehlert, A. Hansen, P. Pracht,
     J. Seibert, S. Spicher, S. Grimme, WIREs Comput. Mol. Sci., 2020, 11,
     e01493. DOI: 10.1002/wcms.1493
   
   for GFN2-xTB:
   * C. Bannwarth, S. Ehlert and S. Grimme., J. Chem. Theory Comput., 2019,
     15, 1652-1671. DOI: 10.1021/acs.jctc.8b01176
   for GFN1-xTB:
   * S. Grimme, C. Bannwarth, P. Shushkov, J. Chem. Theory Comput., 2017,
     13, 1989-2009. DOI: 10.1021/acs.jctc.7b00118
   for GFN0-xTB:
   * P. Pracht, E. Caldeweyher, S. Ehlert, S. Grimme, ChemRxiv, 2019, preprint.
     DOI: 10.26434/chemrxiv.8326202.v1
   for GFN-FF:
   * S. Spicher and S. Grimme, Angew. Chem. Int. Ed., 2020, 59, 15665-15673.
     DOI: 10.1002/anie.202004239
   
   for ALPB and GBSA implicit solvation:
   * S. Ehlert, M. Stahn, S. Spicher, S. Grimme, J. Chem. Theory Comput.,
     2021, 17, 4250-4261. DOI: 10.1021/acs.jctc.1c00471
   
   for DFT-D4:
   * E. Caldeweyher, C. Bannwarth and S. Grimme, J. Chem. Phys., 2017,
     147, 034112. DOI: 10.1063/1.4993215
   * E. Caldeweyher, S. Ehlert, A. Hansen, H. Neugebauer, S. Spicher,
     C. Bannwarth and S. Grimme, J. Chem. Phys., 2019, 150, 154122.
     DOI: 10.1063/1.5090222
   * E. Caldeweyher, J.-M. Mewes, S. Ehlert and S. Grimme, Phys. Chem. Chem. Phys.
     2020, 22, 8499-8512. DOI: 10.1039/D0CP00502A
   
   for sTDA-xTB:
   * S. Grimme and C. Bannwarth, J. Chem. Phys., 2016, 145, 054103.
     DOI: 10.1063/1.4959605
   
   in the mass-spec context:
   * V. Asgeirsson, C. Bauer and S. Grimme, Chem. Sci., 2017, 8, 4879.
     DOI: 10.1039/c7sc00601b
   * J. Koopman and S. Grimme, ACS Omega 2019, 4, 12, 15120-15133.
     DOI: 10.1021/acsomega.9b02011
   
   for metadynamics refer to:
   * S. Grimme, J. Chem. Theory Comput., 2019, 155, 2847-2862
     DOI: 10.1021/acs.jctc.9b00143
   
   for SPH calculations refer to:
   * S. Spicher and S. Grimme, J. Chem. Theory Comput., 2021, 17, 1701-1714
     DOI: 10.1021/acs.jctc.0c01306
   
   with help from (in alphabetical order)
   P. Atkinson, C. Bannwarth, F. Bohle, G. Brandenburg, E. Caldeweyher
   M. Checinski, S. Dohm, S. Ehlert, S. Ehrlich, I. Gerasimov, C. Hölzer
   A. Katbashev, J. Koopman, C. Lavigne, S. Lehtola, F. März, M. Müller,
   F. Musil, H. Neugebauer, J. Pisarek, C. Plett, P. Pracht, F. Pultar,
   J. Seibert, P. Shushkov, S. Spicher, M. Stahn, M. Steiner, T. Strunk,
   J. Stückrath, T. Rose, and J. Unsleber
   
 * started run on 2022/07/20 at 14:52:10.571     

           -------------------------------------------------
          |                Calculation Setup                |
           -------------------------------------------------

          program call               : xtb coord --acc 0.0001 -c -1 -u 1 xtbopt.xyz
          coordinate file            : xtbopt.xyz
          omp threads                :                    16

   ID    Z sym.   atoms
    1    6 C      1-10
    2    1 H      11-18

           -------------------------------------------------
          |                 G F N 2 - x T B                 |
           -------------------------------------------------

        Reference                      10.1021/acs.jctc.8b01176
      * Hamiltonian:
        H0-scaling (s, p, d)           1.850000    2.230000    2.230000
        zeta-weighting                 0.500000
      * Dispersion:
        s8                             2.700000
        a1                             0.520000
        a2                             5.000000
        s9                             5.000000
      * Repulsion:
        kExp                           1.500000    1.000000
        rExp                           1.000000
      * Coulomb:
        alpha                          2.000000
        third order                    shell-resolved
        anisotropic                    true
        a3                             3.000000
        a5                             4.000000
        cn-shift                       1.200000
        cn-exp                         4.000000
        max-rad                        5.000000


          ...................................................
          :                      SETUP                      :
          :.................................................:
          :  # basis functions                  48          :
          :  # atomic orbitals                  48          :
          :  # shells                           28          :
          :  # electrons                        49          :
          :  max. iterations                   250          :
          :  Hamiltonian                  GFN2-xTB          :
          :  restarted?                      false          :
          :  GBSA solvation                  false          :
          :  PC potential                    false          :
          :  electronic temp.          300.0000000     K    :
          :  accuracy                    0.0001000          :
          :  -> integral cutoff          0.6500000E+02      :
          :  -> integral neglect         0.1000000E-11      :
          :  -> SCF convergence          0.1000000E-09 Eh   :
          :  -> wf. convergence          0.1000000E-07 e    :
          :  Broyden damping             0.4000000          :
          ...................................................

 iter      E             dE          RMSdq      gap      omega  full diag
   1    -26.1152302 -0.261152E+02  0.387E+00    0.88       0.0  T
   2    -26.1379950 -0.227648E-01  0.223E+00    0.65       1.0  T
   3    -26.1354649  0.253009E-02  0.900E-01    0.82       1.0  T
   4    -26.1404683 -0.500345E-02  0.252E-01    0.69       1.0  T
   5    -26.1410910 -0.622703E-03  0.510E-02    0.70       1.0  T
   6    -26.1411209 -0.299166E-04  0.227E-02    0.71       1.0  T
   7    -26.1411210 -0.604467E-07  0.230E-03    0.71      10.2  T
   8    -26.1411211 -0.660219E-07  0.536E-04    0.71      43.9  T
   9    -26.1411211 -0.108416E-08  0.522E-05    0.71     451.3  T
  10    -26.1411211  0.171241E-11  0.179E-05    0.71    1319.1  T
  11    -26.1411211 -0.176215E-11  0.883E-06    0.71    2668.9  T
  12    -26.1411211 -0.179412E-11  0.674E-07    0.71   34950.5  T
  13    -26.1411211  0.710543E-14  0.261E-07    0.71   90276.6  T
  14    -26.1411211 -0.284217E-13  0.288E-08    0.71  100000.0  T
  15    -26.1411211  0.461853E-13  0.110E-08    0.71  100000.0  T

   *** convergence criteria satisfied after 15 iterations ***

         #    Occupation            Energy/Eh            Energy/eV
      -------------------------------------------------------------
         1        2.0000           -0.4493377             -12.2271
       ...           ...                  ...                  ...
        19        2.0000           -0.2565165              -6.9802
        20        2.0000           -0.2276440              -6.1945
        21        2.0000           -0.2271364              -6.1807
        22        2.0000           -0.2259695              -6.1489
        23        2.0000           -0.2055220              -5.5925
        24        2.0000           -0.1802025              -4.9036
        25        1.0000           -0.0611760              -1.6647 (HOMO)
        26        0.0000           -0.0351271              -0.9559 (LUMO)
        27                          0.0099263               0.2701
        28                          0.0491007               1.3361
        29                          0.1406218               3.8265
        30                          0.2903034               7.8996
       ...                                ...                  ...
        48                          0.8929260              24.2978
      -------------------------------------------------------------
                  HL-Gap            0.0260489 Eh            0.7088 eV
             Fermi-level           -0.0844204 Eh           -2.2972 eV

 SCC (total)                   0 d,  0 h,  0 min,  0.133 sec
 SCC setup                      ...        0 min,  0.008 sec (  6.250%)
 Dispersion                     ...        0 min,  0.004 sec (  3.350%)
 classical contributions        ...        0 min,  0.037 sec ( 28.153%)
 integral evaluation            ...        0 min,  0.015 sec ( 11.036%)
 iterations                     ...        0 min,  0.049 sec ( 37.053%)
 molecular gradient             ...        0 min,  0.019 sec ( 14.050%)
 printout                       ...        0 min,  0.000 sec (  0.081%)

         :::::::::::::::::::::::::::::::::::::::::::::::::::::
         ::                     SUMMARY                     ::
         :::::::::::::::::::::::::::::::::::::::::::::::::::::
         :: total energy             -25.633869367052 Eh    ::
         :: gradient norm              0.087480425297 Eh/a0 ::
         :: HOMO-LUMO gap              0.708825544157 eV    ::
         ::.................................................::
         :: SCC energy               -26.141121069066 Eh    ::
         :: -> isotropic ES            0.095798330886 Eh    ::
         :: -> anisotropic ES          0.023211196954 Eh    ::
         :: -> anisotropic XC          0.012774510896 Eh    ::
         :: -> dispersion             -0.018672232410 Eh    ::
         :: repulsion energy           0.507214617981 Eh    ::
         :: add. restraining           0.000000000000 Eh    ::
         :: total charge              -1.000000000000 e     ::
         :::::::::::::::::::::::::::::::::::::::::::::::::::::

           -------------------------------------------------
          |                Property Printout                |
           -------------------------------------------------

    * Orbital Energies and Occupations

         #    Occupation            Energy/Eh            Energy/eV
      -------------------------------------------------------------
         1        2.0000           -0.4493377             -12.2271
       ...           ...                  ...                  ...
        13        2.0000           -0.2965749              -8.0702
        14        2.0000           -0.2921788              -7.9506
        15        2.0000           -0.2869401              -7.8080
        16        2.0000           -0.2805128              -7.6331
        17        2.0000           -0.2767690              -7.5313
        18        2.0000           -0.2568701              -6.9898
        19        2.0000           -0.2565165              -6.9802
        20        2.0000           -0.2276440              -6.1945
        21        2.0000           -0.2271364              -6.1807
        22        2.0000           -0.2259695              -6.1489
        23        2.0000           -0.2055220              -5.5925
        24        2.0000           -0.1802025              -4.9036
        25        1.0000           -0.0611760              -1.6647 (HOMO)
        26        0.0000           -0.0351271              -0.9559 (LUMO)
        27                          0.0099263               0.2701
        28                          0.0491007               1.3361
        29                          0.1406218               3.8265
        30                          0.2903034               7.8996
        31                          0.2907215               7.9109
        32                          0.3155171               8.5857
        33                          0.3241915               8.8217
        34                          0.3440231               9.3613
        35                          0.3606303               9.8132
        36                          0.3742559              10.1840
       ...                                ...                  ...
        48                          0.8929260              24.2978
      -------------------------------------------------------------
                  HL-Gap            0.0260489 Eh            0.7088 eV
             Fermi-level           -0.0844204 Eh           -2.2972 eV

     #   Z          covCN         q      C6AA      α(0)
     1   6 C        2.918    -0.090    30.268     9.022
     2   6 C        2.987    -0.006    28.169     8.706
     3   6 C        2.918    -0.090    30.268     9.022
     4   6 C        2.916    -0.066    29.644     8.928
     5   6 C        2.916    -0.066    29.644     8.928
     6   6 C        2.918    -0.090    30.268     9.022
     7   6 C        2.987    -0.006    28.169     8.706
     8   6 C        2.918    -0.090    30.268     9.022
     9   6 C        2.916    -0.066    29.644     8.928
    10   6 C        2.916    -0.066    29.644     8.928
    11   1 H        0.926    -0.043     3.934     3.102
    12   1 H        0.926    -0.043     3.934     3.102
    13   1 H        0.926    -0.047     4.019     3.135
    14   1 H        0.926    -0.047     4.019     3.135
    15   1 H        0.926    -0.043     3.934     3.102
    16   1 H        0.926    -0.043     3.934     3.102
    17   1 H        0.926    -0.047     4.019     3.135
    18   1 H        0.926    -0.047     4.019     3.135

 Mol. C6AA /au·bohr⁶  :       4947.247835
 Mol. C8AA /au·bohr⁸  :     121077.170708
 Mol. α(0) /au        :        114.159868


Wiberg/Mayer (AO) data.
largest (>0.10) Wiberg bond orders for each atom

 ---------------------------------------------------------------------------
     #   Z sym  total        # sym  WBO       # sym  WBO       # sym  WBO
 ---------------------------------------------------------------------------
     1   6 C    3.784 --    10 C    1.402     2 C    1.278    11 H    0.969
     2   6 C    3.989 --     3 C    1.278     1 C    1.278     7 C    1.256
     3   6 C    3.784 --     4 C    1.402     2 C    1.278    12 H    0.969
     4   6 C    3.911 --     5 C    1.404     3 C    1.402    13 H    0.971
     5   6 C    3.911 --     4 C    1.404     6 C    1.402    14 H    0.971
     6   6 C    3.784 --     5 C    1.402     7 C    1.278    15 H    0.969
     7   6 C    3.989 --     6 C    1.278     8 C    1.278     2 C    1.256
     8   6 C    3.784 --     9 C    1.402     7 C    1.278    16 H    0.969
     9   6 C    3.911 --    10 C    1.404     8 C    1.402    17 H    0.971
    10   6 C    3.911 --     9 C    1.404     1 C    1.402    18 H    0.971
    11   1 H    0.998 --     1 C    0.969
    12   1 H    0.998 --     3 C    0.969
    13   1 H    0.997 --     4 C    0.971
    14   1 H    0.997 --     5 C    0.971
    15   1 H    0.998 --     6 C    0.969
    16   1 H    0.998 --     8 C    0.969
    17   1 H    0.997 --     9 C    0.971
    18   1 H    0.997 --    10 C    0.971
 ---------------------------------------------------------------------------

Topologies differ in total number of bonds
Writing topology from bond orders to xtbtopo.mol

molecular dipole:
                 x           y           z       tot (Debye)
 q only:        0.005       0.001       0.008
   full:        0.005       0.001       0.008       0.023
molecular quadrupole (traceless):
                xx          xy          yy          xz          yz          zz
 q only:      -12.070       0.005       0.185      -0.009      -0.003      11.885
  q+dip:       -8.649       0.005       3.664      -0.005      -0.000       4.985
   full:      -10.008       0.005       2.057      -0.007      -0.001       7.951


           -------------------------------------------------
          | TOTAL ENERGY              -25.633869367052 Eh   |
          | GRADIENT NORM               0.087480425297 Eh/α |
          | HOMO-LUMO GAP               0.708825544157 eV   |
           -------------------------------------------------

------------------------------------------------------------------------
 * finished run on 2022/07/20 at 14:52:10.783     
------------------------------------------------------------------------
 total:
 * wall-time:     0 d,  0 h,  0 min,  0.211 sec
 *  cpu-time:     0 d,  0 h,  0 min,  2.454 sec
 * ratio c/w:    11.622 speedup
 SCF:
 * wall-time:     0 d,  0 h,  0 min,  0.133 sec
 *  cpu-time:     0 d,  0 h,  0 min,  1.367 sec
 * ratio c/w:    10.289 speedup

