 Entering Gaussian System, Link 0=g16
 Initial command:
 /sw/linux/gaussian/g16/g16/l1.exe "/usr/scratch/link/Gau-2744.inp" -scrdir="/usr/scratch/link/"
 Entering Link 1 = /sw/linux/gaussian/g16/g16/l1.exe PID=      2746.
  
 Copyright (c) 1988-2017, Gaussian, Inc.  All Rights Reserved.
  
 This is part of the Gaussian(R) 16 program.  It is based on
 the Gaussian(R) 09 system (copyright 2009, Gaussian, Inc.),
 the Gaussian(R) 03 system (copyright 2003, Gaussian, Inc.),
 the Gaussian(R) 98 system (copyright 1998, Gaussian, Inc.),
 the Gaussian(R) 94 system (copyright 1995, Gaussian, Inc.),
 the Gaussian 92(TM) system (copyright 1992, Gaussian, Inc.),
 the Gaussian 90(TM) system (copyright 1990, Gaussian, Inc.),
 the Gaussian 88(TM) system (copyright 1988, Gaussian, Inc.),
 the Gaussian 86(TM) system (copyright 1986, Carnegie Mellon
 University), and the Gaussian 82(TM) system (copyright 1983,
 Carnegie Mellon University). Gaussian is a federally registered
 trademark of Gaussian, Inc.
  
 This software contains proprietary and confidential information,
 including trade secrets, belonging to Gaussian, Inc.
  
 This software is provided under written license and may be
 used, copied, transmitted, or stored only in accord with that
 written license.
  
 The following legend is applicable only to US Government
 contracts under FAR:
  
                    RESTRICTED RIGHTS LEGEND
  
 Use, reproduction and disclosure by the US Government is
 subject to restrictions as set forth in subparagraphs (a)
 and (c) of the Commercial Computer Software - Restricted
 Rights clause in FAR 52.227-19.
  
 Gaussian, Inc.
 340 Quinnipiac St., Bldg. 40, Wallingford CT 06492
  
  
 ---------------------------------------------------------------
 Warning -- This program may not be used in any manner that
 competes with the business of Gaussian, Inc. or will provide
 assistance to any competitor of Gaussian, Inc.  The licensee
 of this program is prohibited from giving any competitor of
 Gaussian, Inc. access to this program.  By using this program,
 the user acknowledges that Gaussian, Inc. is engaged in the
 business of creating and licensing software in the field of
 computational chemistry and represents and warrants to the
 licensee that it is not a competitor of Gaussian, Inc. and that
 it will not use this program in any manner prohibited above.
 ---------------------------------------------------------------
  

 Cite this work as:
 Gaussian 16, Revision B.01,
 M. J. Frisch, G. W. Trucks, H. B. Schlegel, G. E. Scuseria, 
 M. A. Robb, J. R. Cheeseman, G. Scalmani, V. Barone, 
 G. A. Petersson, H. Nakatsuji, X. Li, M. Caricato, A. V. Marenich, 
 J. Bloino, B. G. Janesko, R. Gomperts, B. Mennucci, H. P. Hratchian, 
 J. V. Ortiz, A. F. Izmaylov, J. L. Sonnenberg, D. Williams-Young, 
 F. Ding, F. Lipparini, F. Egidi, J. Goings, B. Peng, A. Petrone, 
 T. Henderson, D. Ranasinghe, V. G. Zakrzewski, J. Gao, N. Rega, 
 G. Zheng, W. Liang, M. Hada, M. Ehara, K. Toyota, R. Fukuda, 
 J. Hasegawa, M. Ishida, T. Nakajima, Y. Honda, O. Kitao, H. Nakai, 
 T. Vreven, K. Throssell, J. A. Montgomery, Jr., J. E. Peralta, 
 F. Ogliaro, M. J. Bearpark, J. J. Heyd, E. N. Brothers, K. N. Kudin, 
 V. N. Staroverov, T. A. Keith, R. Kobayashi, J. Normand, 
 K. Raghavachari, A. P. Rendell, J. C. Burant, S. S. Iyengar, 
 J. Tomasi, M. Cossi, J. M. Millam, M. Klene, C. Adamo, R. Cammi, 
 J. W. Ochterski, R. L. Martin, K. Morokuma, O. Farkas, 
 J. B. Foresman, and D. J. Fox, Gaussian, Inc., Wallingford CT, 2016.
 
 ******************************************
 Gaussian 16:  ES64L-G16RevB.01 20-Dec-2017
                13-Jul-2022 
 ******************************************
 %nprocs=20
 Will use up to   20 processors via shared memory.
 %mem=16GB
 -----------------------------
 #P opt wb97xd/def2tzvp nosymm
 -----------------------------
 1/18=20,19=15,26=3,38=1/1,3;
 2/9=110,12=2,15=1,17=6,18=5,40=1/2;
 3/5=44,7=101,11=2,25=1,30=1,71=1,74=-58/1,2,3;
 4//1;
 5/5=2,38=5/2;
 6/7=2,8=2,9=2,10=2,28=1/1;
 7/30=1/1,2,3,16;
 1/18=20,19=15,26=3/3(2);
 2/9=110,15=1/2;
 99//99;
 2/9=110,15=1/2;
 3/5=44,7=101,11=2,25=1,30=1,71=1,74=-58/1,2,3;
 4/5=5,16=3,69=1/1;
 5/5=2,38=5/2;
 7/30=1/1,2,3,16;
 1/18=20,19=15,26=3/3(-5);
 2/9=110,15=1/2;
 6/7=2,8=2,9=2,10=2,19=2,28=1/1;
 99/9=1/99;
 Leave Link    1 at Wed Jul 13 05:22:45 2022, MaxMem=  2147483648 cpu:               1.5 elap:               0.1
 (Enter /sw/linux/gaussian/g16/g16/l101.exe)
 -----
 TITLE
 -----
 Symbolic Z-matrix:
 Charge =  0 Multiplicity = 1
 H                    -2.12433  -0.22433   2.12433 
 H                    -1.67567   0.22433   1.67567 
 
 ITRead=  0  0
 MicOpt= -1 -1
 NAtoms=      2 NQM=        2 NQMF=       0 NMMI=      0 NMMIF=      0
                NMic=       0 NMicF=      0.
                    Isotopes and Nuclear Properties:
 (Nuclear quadrupole moments (NQMom) in fm**2, nuclear magnetic moments (NMagM)
  in nuclear magnetons)

  Atom         1           2
 IAtWgt=           1           1
 AtmWgt=   1.0078250   1.0078250
 NucSpn=           1           1
 AtZEff=   0.0000000   0.0000000
 NQMom=    0.0000000   0.0000000
 NMagM=    2.7928460   2.7928460
 AtZNuc=   1.0000000   1.0000000
 Leave Link  101 at Wed Jul 13 05:22:46 2022, MaxMem=  2147483648 cpu:               7.3 elap:               0.4
 (Enter /sw/linux/gaussian/g16/g16/l103.exe)

 GradGradGradGradGradGradGradGradGradGradGradGradGradGradGradGradGradGrad
 Berny optimization.
 Initialization pass.
                           ----------------------------
                           !    Initial Parameters    !
                           ! (Angstroms and Degrees)  !
 --------------------------                            --------------------------
 ! Name  Definition              Value          Derivative Info.                !
 --------------------------------------------------------------------------------
 ! R1    R(1,2)                  0.7771         estimate D2E/DX2                !
 --------------------------------------------------------------------------------
 Trust Radius=3.00D-01 FncErr=1.00D-07 GrdErr=1.00D-06 EigMax=2.50D+02 EigMin=1.00D-04
 Number of steps in this run=     20 maximum allowed number of steps=    100.
 GradGradGradGradGradGradGradGradGradGradGradGradGradGradGradGradGradGrad

 Leave Link  103 at Wed Jul 13 05:22:46 2022, MaxMem=  2147483648 cpu:               0.8 elap:               0.1
 (Enter /sw/linux/gaussian/g16/g16/l202.exe)
                          Input orientation:                          
 ---------------------------------------------------------------------
 Center     Atomic      Atomic             Coordinates (Angstroms)
 Number     Number       Type             X           Y           Z
 ---------------------------------------------------------------------
      1          1           0       -2.124334   -0.224334    2.124334
      2          1           0       -1.675666    0.224334    1.675666
 ---------------------------------------------------------------------
 Symmetry turned off by external request.
 Stoichiometry    H2
 Framework group  D*H[C*(H.H)]
 Deg. of freedom     1
 Full point group                 D*H     NOp   8
 Rotational constants (GHZ):           0.0000000        1660.6951182        1660.6951182
 Leave Link  202 at Wed Jul 13 05:22:46 2022, MaxMem=  2147483648 cpu:               1.7 elap:               0.1
 (Enter /sw/linux/gaussian/g16/g16/l301.exe)
 Standard basis: def2TZVP (5D, 7F)
 Ernie: Thresh=  0.10000D-02 Tol=  0.10000D-05 Strict=F.
    12 basis functions,    16 primitive gaussians,    12 cartesian basis functions
     1 alpha electrons        1 beta electrons
       nuclear repulsion energy         0.6809497447 Hartrees.
 IExCor= 4639 DFT=T Ex+Corr=wB97XD ExCW=0 ScaHFX=  1.000000
 ScaDFX=  1.000000  1.000000  1.000000  1.000000 ScalE2=  1.000000  1.000000
 IRadAn=      5 IRanWt=     -1 IRanGd=            0 ICorTp=0 IEmpDi=121
 HFx  wShort=  0.000000 wLong=  0.200000 cFull=  0.222036 cShort=  0.000000 cLong=  0.777964
 DFx  wShort=  0.000000 wLong=  0.200000 cFull=  0.000000 cShort=  0.000000 cLong=  1.000000
 NAtoms=    2 NActive=    2 NUniq=    2 SFac= 1.00D+00 NAtFMM=   60 NAOKFM=F Big=F
 Integral buffers will be    131072 words long.
 Raffenetti 2 integral format.
 Two-electron integral symmetry is turned off.
 R6Disp:  Grimme-D2 Dispersion energy=       -0.0000004722 Hartrees.
 Nuclear repulsion after empirical dispersion term =        0.6809492725 Hartrees.
 Leave Link  301 at Wed Jul 13 05:22:46 2022, MaxMem=  2147483648 cpu:               2.1 elap:               0.1
 (Enter /sw/linux/gaussian/g16/g16/l302.exe)
 NPDir=0 NMtPBC=     1 NCelOv=     1 NCel=       1 NClECP=     1 NCelD=      1
         NCelK=      1 NCelE2=     1 NClLst=     1 CellRange=     0.0.
 One-electron integrals computed using PRISM.
   1 Symmetry operations used in ECPInt.
 ECPInt:  NShTT=      36 NPrTT=      84 LenC2=      37 LenP2D=      84.
 LDataN:  DoStor=T MaxTD1= 2 Len=   12
 NBasis=    12 RedAO= T EigKep=  2.08D-02  NBF=    12
 NBsUse=    12 1.00D-06 EigRej= -1.00D+00 NBFU=    12
 Precomputing XC quadrature grid using
 IXCGrd= 4 IRadAn=           5 IRanWt=          -1 IRanGd=           0 AccXCQ= 0.00D+00.
 Generated NRdTot=       0 NPtTot=           0 NUsed=           0 NTot=          32
 NSgBfM=    12    12    12    12    12 MxSgAt=     2 MxSgA2=     2.
 Leave Link  302 at Wed Jul 13 05:22:46 2022, MaxMem=  2147483648 cpu:               2.6 elap:               0.2
 (Enter /sw/linux/gaussian/g16/g16/l303.exe)
 DipDrv:  MaxL=1.
 Leave Link  303 at Wed Jul 13 05:22:47 2022, MaxMem=  2147483648 cpu:               1.0 elap:               0.1
 (Enter /sw/linux/gaussian/g16/g16/l401.exe)
 ExpMin= 1.03D-01 ExpMax= 3.41D+01 ExpMxC= 3.41D+01 IAcc=3 IRadAn=         5 AccDes= 0.00D+00
 Harris functional with IExCor= 4639 and IRadAn=       5 diagonalized for initial guess.
 HarFok:  IExCor= 4639 AccDes= 0.00D+00 IRadAn=         5 IDoV= 1 UseB2=F ITyADJ=14
 ICtDFT=  3500011 ScaDFX=  1.000000  1.000000  1.000000  1.000000
 FoFCou: FMM=F IPFlag=           0 FMFlag=      100000 FMFlg1=           0
         NFxFlg=           0 DoJE=T BraDBF=F KetDBF=T FulRan=T
         wScrn=  0.000000 ICntrl=       500 IOpCl=  0 I1Cent=   200000004 NGrid=           0
         NMat0=    1 NMatS0=      1 NMatT0=    0 NMatD0=    1 NMtDS0=    0 NMtDT0=    0
 Symmetry not used in FoFCou.
 Harris En=-0.879444707505463    
 JPrj=0 DoOrth=F DoCkMO=F.
 Leave Link  401 at Wed Jul 13 05:22:47 2022, MaxMem=  2147483648 cpu:               3.6 elap:               0.2
 (Enter /sw/linux/gaussian/g16/g16/l502.exe)
 Keep R1 ints in memory in canonical form, NReq=17257088.
 FoFCou: FMM=F IPFlag=           0 FMFlag=           0 FMFlg1=           0
         NFxFlg=           0 DoJE=F BraDBF=F KetDBF=F FulRan=T
         wScrn=  0.000000 ICntrl=       600 IOpCl=  0 I1Cent=           0 NGrid=           0
         NMat0=    1 NMatS0=     78 NMatT0=    0 NMatD0=    1 NMtDS0=    0 NMtDT0=    0
 Symmetry not used in FoFCou.
 Two-electron integral symmetry not used.
 Closed shell SCF:
 Using DIIS extrapolation, IDIIS=  1040.
 NGot=  2147483648 LenX=  2147475872 LenY=  2147474990
 Requested convergence on RMS density matrix=1.00D-08 within 128 cycles.
 Requested convergence on MAX density matrix=1.00D-06.
 Requested convergence on             energy=1.00D-06.
 No special actions if energy rises.
 Integral accuracy reduced to 1.0D-05 until final iterations.

 Cycle   1  Pass 0  IDiag  1:
 E= -1.17517285399317    
 DIIS: error= 4.64D-03 at cycle   1 NSaved=   1.
 NSaved= 1 IEnMin= 1 EnMin= -1.17517285399317     IErMin= 1 ErrMin= 4.64D-03
 ErrMax= 4.64D-03  0.00D+00 EMaxC= 1.00D-01 BMatC= 1.82D-04 BMatP= 1.82D-04
 IDIUse=3 WtCom= 9.54D-01 WtEn= 4.64D-02
 Coeff-Com:  0.100D+01
 Coeff-En:   0.100D+01
 Coeff:      0.100D+01
 Gap=     0.643 Goal=   None    Shift=    0.000
 GapD=    0.643 DampG=2.000 DampE=1.000 DampFc=2.0000 IDamp=-1.
 RMSDP=1.33D-03 MaxDP=5.92D-03              OVMax= 1.10D-02

 Cycle   2  Pass 0  IDiag  1:
 E= -1.17549032615767     Delta-E=       -0.000317472164 Rises=F Damp=F
 DIIS: error= 1.05D-03 at cycle   2 NSaved=   2.
 NSaved= 2 IEnMin= 2 EnMin= -1.17549032615767     IErMin= 2 ErrMin= 1.05D-03
 ErrMax= 1.05D-03  0.00D+00 EMaxC= 1.00D-01 BMatC= 7.74D-06 BMatP= 1.82D-04
 IDIUse=3 WtCom= 9.89D-01 WtEn= 1.05D-02
 Coeff-Com: -0.254D+00 0.125D+01
 Coeff-En:   0.000D+00 0.100D+01
 Coeff:     -0.252D+00 0.125D+01
 Gap=     0.642 Goal=   None    Shift=    0.000
 RMSDP=3.78D-04 MaxDP=1.71D-03 DE=-3.17D-04 OVMax= 3.06D-03

 Cycle   3  Pass 0  IDiag  1:
 E= -1.17550583090868     Delta-E=       -0.000015504751 Rises=F Damp=F
 DIIS: error= 3.63D-05 at cycle   3 NSaved=   3.
 NSaved= 3 IEnMin= 3 EnMin= -1.17550583090868     IErMin= 3 ErrMin= 3.63D-05
 ErrMax= 3.63D-05  0.00D+00 EMaxC= 1.00D-01 BMatC= 5.58D-09 BMatP= 7.74D-06
 IDIUse=1 WtCom= 1.00D+00 WtEn= 0.00D+00
 Coeff-Com:  0.269D-01-0.150D+00 0.112D+01
 Coeff:      0.269D-01-0.150D+00 0.112D+01
 Gap=     0.642 Goal=   None    Shift=    0.000
 RMSDP=9.98D-06 MaxDP=4.67D-05 DE=-1.55D-05 OVMax= 7.52D-05

 Initial convergence to 1.0D-05 achieved.  Increase integral accuracy.
 Cycle   4  Pass 1  IDiag  1:
 E= -1.17548751163399     Delta-E=        0.000018319275 Rises=F Damp=F
 DIIS: error= 1.34D-05 at cycle   1 NSaved=   1.
 NSaved= 1 IEnMin= 1 EnMin= -1.17548751163399     IErMin= 1 ErrMin= 1.34D-05
 ErrMax= 1.34D-05  0.00D+00 EMaxC= 1.00D-01 BMatC= 1.21D-09 BMatP= 1.21D-09
 IDIUse=1 WtCom= 1.00D+00 WtEn= 0.00D+00
 Coeff-Com:  0.100D+01
 Coeff:      0.100D+01
 Gap=     0.642 Goal=   None    Shift=    0.000
 RMSDP=9.98D-06 MaxDP=4.67D-05 DE= 1.83D-05 OVMax= 1.62D-05

 Cycle   5  Pass 1  IDiag  1:
 E= -1.17548751276956     Delta-E=       -0.000000001136 Rises=F Damp=F
 DIIS: error= 8.00D-07 at cycle   2 NSaved=   2.
 NSaved= 2 IEnMin= 2 EnMin= -1.17548751276956     IErMin= 2 ErrMin= 8.00D-07
 ErrMax= 8.00D-07  0.00D+00 EMaxC= 1.00D-01 BMatC= 4.85D-12 BMatP= 1.21D-09
 IDIUse=1 WtCom= 1.00D+00 WtEn= 0.00D+00
 Coeff-Com: -0.379D-01 0.104D+01
 Coeff:     -0.379D-01 0.104D+01
 Gap=     0.642 Goal=   None    Shift=    0.000
 RMSDP=2.58D-07 MaxDP=1.16D-06 DE=-1.14D-09 OVMax= 2.14D-06

 Cycle   6  Pass 1  IDiag  1:
 E= -1.17548751277969     Delta-E=       -0.000000000010 Rises=F Damp=F
 DIIS: error= 1.73D-07 at cycle   3 NSaved=   3.
 NSaved= 3 IEnMin= 3 EnMin= -1.17548751277969     IErMin= 3 ErrMin= 1.73D-07
 ErrMax= 1.73D-07  0.00D+00 EMaxC= 1.00D-01 BMatC= 1.86D-13 BMatP= 4.85D-12
 IDIUse=1 WtCom= 1.00D+00 WtEn= 0.00D+00
 Coeff-Com: -0.178D-02-0.219D+00 0.122D+01
 Coeff:     -0.178D-02-0.219D+00 0.122D+01
 Gap=     0.642 Goal=   None    Shift=    0.000
 RMSDP=6.07D-08 MaxDP=2.77D-07 DE=-1.01D-11 OVMax= 4.83D-07

 Cycle   7  Pass 1  IDiag  1:
 E= -1.17548751278006     Delta-E=        0.000000000000 Rises=F Damp=F
 DIIS: error= 2.35D-09 at cycle   4 NSaved=   4.
 NSaved= 4 IEnMin= 4 EnMin= -1.17548751278006     IErMin= 4 ErrMin= 2.35D-09
 ErrMax= 2.35D-09  0.00D+00 EMaxC= 1.00D-01 BMatC= 3.27D-17 BMatP= 1.86D-13
 IDIUse=1 WtCom= 1.00D+00 WtEn= 0.00D+00
 Coeff-Com:  0.179D-03 0.253D-01-0.143D+00 0.112D+01
 Coeff:      0.179D-03 0.253D-01-0.143D+00 0.112D+01
 Gap=     0.642 Goal=   None    Shift=    0.000
 RMSDP=4.26D-10 MaxDP=1.99D-09 DE=-3.72D-13 OVMax= 2.91D-09

 SCF Done:  E(RwB97XD) =  -1.17548751278     A.U. after    7 cycles
            NFock=  7  Conv=0.43D-09     -V/T= 2.0638
 KE= 1.105012234701D+00 PE=-3.564005167713D+00 EE= 6.025561477056D-01
 Leave Link  502 at Wed Jul 13 05:22:47 2022, MaxMem=  2147483648 cpu:               5.5 elap:               0.3
 (Enter /sw/linux/gaussian/g16/g16/l601.exe)
 Copying SCF densities to generalized density rwf, IOpCl= 0 IROHF=0.

 **********************************************************************

            Population analysis using the SCF Density.

 **********************************************************************

 Alpha  occ. eigenvalues --   -0.50971
 Alpha virt. eigenvalues --    0.13256   0.28758   0.54267   1.25299   1.25299
 Alpha virt. eigenvalues --    1.68822   2.00700   2.00700   2.14193   2.51358
 Alpha virt. eigenvalues --    3.36710
          Condensed to atoms (all electrons):
               1          2
     1  H    0.591269   0.408731
     2  H    0.408731   0.591269
 Mulliken charges:
               1
     1  H    0.000000
     2  H    0.000000
 Sum of Mulliken charges =   0.00000
 Mulliken charges with hydrogens summed into heavy atoms:
               1
 Electronic spatial extent (au):  <R**2>=             56.9279
 Charge=              0.0000 electrons
 Dipole moment (field-independent basis, Debye):
    X=              0.0000    Y=              0.0000    Z=              0.0000  Tot=              0.0000
 Quadrupole moment (field-independent basis, Debye-Ang):
   XX=             -1.9204   YY=             -1.9204   ZZ=             -1.9204
   XY=              0.1970   XZ=             -0.1970   YZ=             -0.1970
 Traceless Quadrupole moment (field-independent basis, Debye-Ang):
   XX=              0.0000   YY=              0.0000   ZZ=              0.0000
   XY=              0.1970   XZ=             -0.1970   YZ=             -0.1970
 Octapole moment (field-independent basis, Debye-Ang**2):
  XXX=             10.9464  YYY=              0.0000  ZZZ=            -10.9464  XYY=              3.6488
  XXY=             -0.7484  XXZ=             -2.9004  XZZ=              2.9004  YZZ=             -0.7484
  YYZ=             -3.6488  XYZ=              0.7484
 Hexadecapole moment (field-independent basis, Debye-Ang**3):
 XXXX=            -44.1188 YYYY=             -2.5223 ZZZZ=            -44.1188 XXXY=              1.9603
 XXXZ=             18.8379 YYYX=             -0.1727 YYYZ=              0.1727 ZZZX=             18.8379
 ZZZY=             -1.9603 XXYY=             -7.7651 XXZZ=            -11.8539 YYZZ=             -7.7651
 XXYZ=             -2.0838 YYXZ=              6.9819 ZZXY=              2.0838
 N-N= 6.809492725263D-01 E-N=-3.564005168621D+00  KE= 1.105012234701D+00
 No NMR shielding tensors so no spin-rotation constants.
 Leave Link  601 at Wed Jul 13 05:22:47 2022, MaxMem=  2147483648 cpu:               2.2 elap:               0.1
 (Enter /sw/linux/gaussian/g16/g16/l701.exe)
 ... and contract with generalized density number  0.
 Compute integral first derivatives.
 R6Disp: Adding Grimme-D2 dispersion energy 1st derivatives to the gradient.
   1 Symmetry operations used in ECPInt.
 ECPInt:  NShTT=      36 NPrTT=      84 LenC2=      37 LenP2D=      84.
 LDataN:  DoStor=T MaxTD1= 3 Len=   28
 Leave Link  701 at Wed Jul 13 05:22:48 2022, MaxMem=  2147483648 cpu:               2.7 elap:               0.2
 (Enter /sw/linux/gaussian/g16/g16/l702.exe)
 L702 exits ... SP integral derivatives will be done elsewhere.
 Leave Link  702 at Wed Jul 13 05:22:48 2022, MaxMem=  2147483648 cpu:               1.7 elap:               0.1
 (Enter /sw/linux/gaussian/g16/g16/l703.exe)
 Integral derivatives from FoFJK, PRISM(SPDF).
 Compute integral first derivatives, UseDBF=F ICtDFT=           0.
 Calling FoFJK, ICntrl=      2127 FMM=F ISym2X=0 I1Cent= 0 IOpClX= 0 NMat=1 NMatS=1 NMatT=0.
 FoFJK:  IHMeth= 1 ICntrl=    2127 DoSepK=T KAlg= 0 I1Cent=           0 FoldK=F
 IRaf=         1 NMat=       1 IRICut=       1 DoRegI=T DoRafI=F ISym2E= 0 IDoP0=0 IntGTp=1.
 FoFCou: FMM=F IPFlag=           0 FMFlag=      100000 FMFlg1=         800
         NFxFlg=           0 DoJE=F BraDBF=F KetDBF=F FulRan=T
         wScrn=  0.000000 ICntrl=      2527 IOpCl=  0 I1Cent=           0 NGrid=           0
         NMat0=    1 NMatS0=      1 NMatT0=    0 NMatD0=    1 NMtDS0=    0 NMtDT0=    0
 Symmetry not used in FoFCou.
 Leave Link  703 at Wed Jul 13 05:22:48 2022, MaxMem=  2147483648 cpu:               3.6 elap:               0.2
 (Enter /sw/linux/gaussian/g16/g16/l716.exe)
 Dipole        =-1.24344979D-14 2.83106871D-15 1.24344979D-14
 -------------------------------------------------------------------
 Center     Atomic                   Forces (Hartrees/Bohr)
 Number     Number              X              Y              Z
 -------------------------------------------------------------------
      1        1           0.012190535    0.012190535   -0.012190535
      2        1          -0.012190535   -0.012190535    0.012190535
 -------------------------------------------------------------------
 Cartesian Forces:  Max     0.012190535 RMS     0.012190535
 Leave Link  716 at Wed Jul 13 05:22:48 2022, MaxMem=  2147483648 cpu:               2.0 elap:               0.2
 (Enter /sw/linux/gaussian/g16/g16/l103.exe)

 GradGradGradGradGradGradGradGradGradGradGradGradGradGradGradGradGradGrad
 Berny optimization.
 FormGI is forming the generalized inverse of G from B-inverse, IUseBI=4.
 Internal  Forces:  Max     0.021114626 RMS     0.021114626
 Search for a local minimum.
 Step number   1 out of a maximum of   20
 All quantities printed in internal units (Hartrees-Bohrs-Radians)
 RMS Force = .21115D-01 SwitMx=.10000D-02 MixMth= 1
 Mixed Optimization -- RFO/linear search
 Second derivative matrix not updated -- first step.
 The second derivative matrix:
                          R1
           R1           0.34525
 ITU=  0
     Eigenvalues ---    0.34525
 RFO step:  Lambda=-1.28653717D-03 EMin= 3.45246342D-01
 Linear search not attempted -- first point.
 Iteration  1 RMS(Cart)=  0.04308479 RMS(Int)=  0.00000000
 Iteration  2 RMS(Cart)=  0.00000000 RMS(Int)=  0.00000000
 ITry= 1 IFail=0 DXMaxC= 1.76D-02 DCOld= 1.00D+10 DXMaxT= 3.00D-01 DXLimC= 3.00D+00 Rises=F
 Variable       Old X    -DE/DX   Delta X   Delta X   Delta X     New X
                                 (Linear)    (Quad)   (Total)
    R1        1.46854  -0.02111   0.00000  -0.06093  -0.06093   1.40761
         Item               Value     Threshold  Converged?
 Maximum Force            0.021115     0.000450     NO 
 RMS     Force            0.021115     0.000300     NO 
 Maximum Displacement     0.017589     0.001800     NO 
 RMS     Displacement     0.043085     0.001200     NO 
 Predicted change in Energy=-6.456568D-04
 Lowest energy point so far.  Saving SCF results.
 GradGradGradGradGradGradGradGradGradGradGradGradGradGradGradGradGradGrad

 Leave Link  103 at Wed Jul 13 05:22:48 2022, MaxMem=  2147483648 cpu:               0.8 elap:               0.1
 (Enter /sw/linux/gaussian/g16/g16/l202.exe)
                          Input orientation:                          
 ---------------------------------------------------------------------
 Center     Atomic      Atomic             Coordinates (Angstroms)
 Number     Number       Type             X           Y           Z
 ---------------------------------------------------------------------
      1          1           0       -2.115026   -0.215026    2.115026
      2          1           0       -1.684974    0.215026    1.684974
 ---------------------------------------------------------------------
 Symmetry turned off by external request.
 Stoichiometry    H2
 Framework group  D*H[C*(H.H)]
 Deg. of freedom     1
 Full point group                 D*H     NOp   8
 Rotational constants (GHZ):           0.0000000        1807.5800018        1807.5800018
 Leave Link  202 at Wed Jul 13 05:22:48 2022, MaxMem=  2147483648 cpu:               1.6 elap:               0.1
 (Enter /sw/linux/gaussian/g16/g16/l301.exe)
 Standard basis: def2TZVP (5D, 7F)
 Ernie: Thresh=  0.10000D-02 Tol=  0.10000D-05 Strict=F.
    12 basis functions,    16 primitive gaussians,    12 cartesian basis functions
     1 alpha electrons        1 beta electrons
       nuclear repulsion energy         0.7104260385 Hartrees.
 IExCor= 4639 DFT=T Ex+Corr=wB97XD ExCW=0 ScaHFX=  1.000000
 ScaDFX=  1.000000  1.000000  1.000000  1.000000 ScalE2=  1.000000  1.000000
 IRadAn=      5 IRanWt=     -1 IRanGd=            0 ICorTp=0 IEmpDi=121
 HFx  wShort=  0.000000 wLong=  0.200000 cFull=  0.222036 cShort=  0.000000 cLong=  0.777964
 DFx  wShort=  0.000000 wLong=  0.200000 cFull=  0.000000 cShort=  0.000000 cLong=  1.000000
 NAtoms=    2 NActive=    2 NUniq=    2 SFac= 1.00D+00 NAtFMM=   60 NAOKFM=F Big=F
 Integral buffers will be    131072 words long.
 Raffenetti 2 integral format.
 Two-electron integral symmetry is turned off.
 R6Disp:  Grimme-D2 Dispersion energy=       -0.0000003662 Hartrees.
 Nuclear repulsion after empirical dispersion term =        0.7104256724 Hartrees.
 Leave Link  301 at Wed Jul 13 05:22:48 2022, MaxMem=  2147483648 cpu:               2.1 elap:               0.1
 (Enter /sw/linux/gaussian/g16/g16/l302.exe)
 NPDir=0 NMtPBC=     1 NCelOv=     1 NCel=       1 NClECP=     1 NCelD=      1
         NCelK=      1 NCelE2=     1 NClLst=     1 CellRange=     0.0.
 One-electron integrals computed using PRISM.
   1 Symmetry operations used in ECPInt.
 ECPInt:  NShTT=      36 NPrTT=      84 LenC2=      37 LenP2D=      84.
 LDataN:  DoStor=T MaxTD1= 2 Len=   12
 NBasis=    12 RedAO= T EigKep=  1.85D-02  NBF=    12
 NBsUse=    12 1.00D-06 EigRej= -1.00D+00 NBFU=    12
 Precomputing XC quadrature grid using
 IXCGrd= 4 IRadAn=           5 IRanWt=          -1 IRanGd=           0 AccXCQ= 0.00D+00.
 Generated NRdTot=       0 NPtTot=           0 NUsed=           0 NTot=          32
 NSgBfM=    12    12    12    12    12 MxSgAt=     2 MxSgA2=     2.
 Leave Link  302 at Wed Jul 13 05:22:49 2022, MaxMem=  2147483648 cpu:               3.0 elap:               0.2
 (Enter /sw/linux/gaussian/g16/g16/l303.exe)
 DipDrv:  MaxL=1.
 Leave Link  303 at Wed Jul 13 05:22:49 2022, MaxMem=  2147483648 cpu:               1.2 elap:               0.1
 (Enter /sw/linux/gaussian/g16/g16/l401.exe)
 Initial guess from the checkpoint file:  "/usr/scratch/link/Gau-2746.chk"
 B after Tr=     0.000000    0.000000    0.000000
         Rot=    1.000000    0.000000    0.000000    0.000000 Ang=   0.00 deg.
 Guess basis will be translated and rotated to current coordinates.
 JPrj=2 DoOrth=T DoCkMO=T.
 Leave Link  401 at Wed Jul 13 05:22:49 2022, MaxMem=  2147483648 cpu:               2.4 elap:               0.1
 (Enter /sw/linux/gaussian/g16/g16/l502.exe)
 Keep R1 ints in memory in canonical form, NReq=17257088.
 FoFCou: FMM=F IPFlag=           0 FMFlag=           0 FMFlg1=           0
         NFxFlg=           0 DoJE=F BraDBF=F KetDBF=F FulRan=T
         wScrn=  0.000000 ICntrl=       600 IOpCl=  0 I1Cent=           0 NGrid=           0
         NMat0=    1 NMatS0=     78 NMatT0=    0 NMatD0=    1 NMtDS0=    0 NMtDT0=    0
 Symmetry not used in FoFCou.
 Two-electron integral symmetry not used.
 Closed shell SCF:
 Using DIIS extrapolation, IDIIS=  1040.
 NGot=  2147483648 LenX=  2147475872 LenY=  2147474990
 Requested convergence on RMS density matrix=1.00D-08 within 128 cycles.
 Requested convergence on MAX density matrix=1.00D-06.
 Requested convergence on             energy=1.00D-06.
 No special actions if energy rises.

 Cycle   1  Pass 1  IDiag  1:
 E= -1.17602243117131    
 DIIS: error= 3.39D-03 at cycle   1 NSaved=   1.
 NSaved= 1 IEnMin= 1 EnMin= -1.17602243117131     IErMin= 1 ErrMin= 3.39D-03
 ErrMax= 3.39D-03  0.00D+00 EMaxC= 1.00D-01 BMatC= 1.30D-04 BMatP= 1.30D-04
 IDIUse=3 WtCom= 9.66D-01 WtEn= 3.39D-02
 Coeff-Com:  0.100D+01
 Coeff-En:   0.100D+01
 Coeff:      0.100D+01
 Gap=     1.708 Goal=   None    Shift=    0.000
 GapD=    1.708 DampG=2.000 DampE=1.000 DampFc=2.0000 IDamp=-1.
 RMSDP=4.88D-04 MaxDP=1.67D-03              OVMax= 7.44D-03

 Cycle   2  Pass 1  IDiag  1:
 E= -1.17616692652840     Delta-E=       -0.000144495357 Rises=F Damp=F
 DIIS: error= 3.25D-04 at cycle   2 NSaved=   2.
 NSaved= 2 IEnMin= 2 EnMin= -1.17616692652840     IErMin= 2 ErrMin= 3.25D-04
 ErrMax= 3.25D-04  0.00D+00 EMaxC= 1.00D-01 BMatC= 5.27D-07 BMatP= 1.30D-04
 IDIUse=3 WtCom= 9.97D-01 WtEn= 3.25D-03
 Coeff-Com: -0.590D-02 0.101D+01
 Coeff-En:   0.000D+00 0.100D+01
 Coeff:     -0.588D-02 0.101D+01
 Gap=     0.656 Goal=   None    Shift=    0.000
 RMSDP=4.30D-05 MaxDP=1.65D-04 DE=-1.44D-04 OVMax= 4.27D-04

 Cycle   3  Pass 1  IDiag  1:
 E= -1.17616756082280     Delta-E=       -0.000000634294 Rises=F Damp=F
 DIIS: error= 4.63D-05 at cycle   3 NSaved=   3.
 NSaved= 3 IEnMin= 3 EnMin= -1.17616756082280     IErMin= 3 ErrMin= 4.63D-05
 ErrMax= 4.63D-05  0.00D+00 EMaxC= 1.00D-01 BMatC= 1.14D-08 BMatP= 5.27D-07
 IDIUse=1 WtCom= 1.00D+00 WtEn= 0.00D+00
 Coeff-Com:  0.853D-03-0.157D+00 0.116D+01
 Coeff:      0.853D-03-0.157D+00 0.116D+01
 Gap=     0.656 Goal=   None    Shift=    0.000
 RMSDP=1.13D-05 MaxDP=4.82D-05 DE=-6.34D-07 OVMax= 1.01D-04

 Cycle   4  Pass 1  IDiag  1:
 E= -1.17616758135872     Delta-E=       -0.000000020536 Rises=F Damp=F
 DIIS: error= 4.43D-06 at cycle   4 NSaved=   4.
 NSaved= 4 IEnMin= 4 EnMin= -1.17616758135872     IErMin= 4 ErrMin= 4.43D-06
 ErrMax= 4.43D-06  0.00D+00 EMaxC= 1.00D-01 BMatC= 9.12D-11 BMatP= 1.14D-08
 IDIUse=1 WtCom= 1.00D+00 WtEn= 0.00D+00
 Coeff-Com:  0.296D-03 0.244D-01-0.236D+00 0.121D+01
 Coeff:      0.296D-03 0.244D-01-0.236D+00 0.121D+01
 Gap=     0.656 Goal=   None    Shift=    0.000
 RMSDP=1.33D-06 MaxDP=6.14D-06 DE=-2.05D-08 OVMax= 1.02D-05

 Cycle   5  Pass 1  IDiag  1:
 E= -1.17616758152780     Delta-E=       -0.000000000169 Rises=F Damp=F
 DIIS: error= 1.45D-09 at cycle   5 NSaved=   5.
 NSaved= 5 IEnMin= 5 EnMin= -1.17616758152780     IErMin= 5 ErrMin= 1.45D-09
 ErrMax= 1.45D-09  0.00D+00 EMaxC= 1.00D-01 BMatC= 9.02D-18 BMatP= 9.12D-11
 IDIUse=1 WtCom= 1.00D+00 WtEn= 0.00D+00
 Coeff-Com:  0.319D-07-0.255D-04 0.216D-03-0.856D-03 0.100D+01
 Coeff:      0.319D-07-0.255D-04 0.216D-03-0.856D-03 0.100D+01
 Gap=     0.656 Goal=   None    Shift=    0.000
 RMSDP=2.57D-10 MaxDP=8.87D-10 DE=-1.69D-10 OVMax= 3.23D-09

 SCF Done:  E(RwB97XD) =  -1.17616758153     A.U. after    5 cycles
            NFock=  5  Conv=0.26D-09     -V/T= 2.0362
 KE= 1.135088073477D+00 PE=-3.635656323715D+00 EE= 6.139749963384D-01
 Leave Link  502 at Wed Jul 13 05:22:49 2022, MaxMem=  2147483648 cpu:               4.1 elap:               0.2
 (Enter /sw/linux/gaussian/g16/g16/l701.exe)
 ... and contract with generalized density number  0.
 Compute integral first derivatives.
 R6Disp: Adding Grimme-D2 dispersion energy 1st derivatives to the gradient.
   1 Symmetry operations used in ECPInt.
 ECPInt:  NShTT=      36 NPrTT=      84 LenC2=      37 LenP2D=      84.
 LDataN:  DoStor=T MaxTD1= 3 Len=   28
 Leave Link  701 at Wed Jul 13 05:22:49 2022, MaxMem=  2147483648 cpu:               3.0 elap:               0.2
 (Enter /sw/linux/gaussian/g16/g16/l702.exe)
 L702 exits ... SP integral derivatives will be done elsewhere.
 Leave Link  702 at Wed Jul 13 05:22:49 2022, MaxMem=  2147483648 cpu:               1.6 elap:               0.1
 (Enter /sw/linux/gaussian/g16/g16/l703.exe)
 Integral derivatives from FoFJK, PRISM(SPDF).
 Compute integral first derivatives, UseDBF=F ICtDFT=           0.
 Calling FoFJK, ICntrl=      2127 FMM=F ISym2X=0 I1Cent= 0 IOpClX= 0 NMat=1 NMatS=1 NMatT=0.
 FoFJK:  IHMeth= 1 ICntrl=    2127 DoSepK=T KAlg= 0 I1Cent=           0 FoldK=F
 IRaf=         1 NMat=       1 IRICut=       1 DoRegI=T DoRafI=F ISym2E= 0 IDoP0=0 IntGTp=1.
 FoFCou: FMM=F IPFlag=           0 FMFlag=      100000 FMFlg1=         800
         NFxFlg=           0 DoJE=F BraDBF=F KetDBF=F FulRan=T
         wScrn=  0.000000 ICntrl=      2527 IOpCl=  0 I1Cent=           0 NGrid=           0
         NMat0=    1 NMatS0=      1 NMatT0=    0 NMatD0=    1 NMtDS0=    0 NMtDT0=    0
 Symmetry not used in FoFCou.
 Leave Link  703 at Wed Jul 13 05:22:50 2022, MaxMem=  2147483648 cpu:               3.8 elap:               0.2
 (Enter /sw/linux/gaussian/g16/g16/l716.exe)
 Dipole        =-7.99360578D-15-4.49640325D-15 7.99360578D-15
 -------------------------------------------------------------------
 Center     Atomic                   Forces (Hartrees/Bohr)
 Number     Number              X              Y              Z
 -------------------------------------------------------------------
      1        1           0.000292869    0.000292869   -0.000292869
      2        1          -0.000292869   -0.000292869    0.000292869
 -------------------------------------------------------------------
 Cartesian Forces:  Max     0.000292869 RMS     0.000292869
 Leave Link  716 at Wed Jul 13 05:22:50 2022, MaxMem=  2147483648 cpu:               1.5 elap:               0.1
 (Enter /sw/linux/gaussian/g16/g16/l103.exe)

 GradGradGradGradGradGradGradGradGradGradGradGradGradGradGradGradGradGrad
 Berny optimization.
 Using GEDIIS/GDIIS optimizer.
 Red2BG is reusing G-inverse.
 Internal  Forces:  Max     0.000507265 RMS     0.000507265
 Search for a local minimum.
 Step number   2 out of a maximum of   20
 All quantities printed in internal units (Hartrees-Bohrs-Radians)
 RMS Force = .50726D-03 SwitMx=.10000D-02 MixMth= 2
 Mixed Optimization -- En-DIIS/RFO-DIIS
 Update second derivatives using D2CorX and points    1    2
 DE= -6.80D-04 DEPred=-6.46D-04 R= 1.05D+00
 TightC=F SS=  1.41D+00  RLast= 6.09D-02 DXNew= 5.0454D-01 1.8279D-01
 Trust test= 1.05D+00 RLast= 6.09D-02 DXMaxT set to 3.00D-01
 The second derivative matrix:
                          R1
           R1           0.33821
 ITU=  1  0
 Use linear search instead of GDIIS.
     Eigenvalues ---    0.33821
 RFO step:  Lambda= 0.00000000D+00 EMin= 3.38207663D-01
 Quartic linear search produced a step of  0.02225.
 Iteration  1 RMS(Cart)=  0.00095881 RMS(Int)=  0.00000000
 Iteration  2 RMS(Cart)=  0.00000000 RMS(Int)=  0.00000000
 ITry= 1 IFail=0 DXMaxC= 3.91D-04 DCOld= 1.00D+10 DXMaxT= 3.00D-01 DXLimC= 3.00D+00 Rises=F
 Variable       Old X    -DE/DX   Delta X   Delta X   Delta X     New X
                                 (Linear)    (Quad)   (Total)
    R1        1.40761  -0.00051  -0.00136   0.00000  -0.00136   1.40625
         Item               Value     Threshold  Converged?
 Maximum Force            0.000507     0.000450     NO 
 RMS     Force            0.000507     0.000300     NO 
 Maximum Displacement     0.000391     0.001800     YES
 RMS     Displacement     0.000959     0.001200     YES
 Predicted change in Energy=-3.769114D-07
 Lowest energy point so far.  Saving SCF results.
 GradGradGradGradGradGradGradGradGradGradGradGradGradGradGradGradGradGrad

 Leave Link  103 at Wed Jul 13 05:22:50 2022, MaxMem=  2147483648 cpu:               2.2 elap:               0.2
 (Enter /sw/linux/gaussian/g16/g16/l202.exe)
                          Input orientation:                          
 ---------------------------------------------------------------------
 Center     Atomic      Atomic             Coordinates (Angstroms)
 Number     Number       Type             X           Y           Z
 ---------------------------------------------------------------------
      1          1           0       -2.114819   -0.214819    2.114819
      2          1           0       -1.685181    0.214819    1.685181
 ---------------------------------------------------------------------
 Symmetry turned off by external request.
 Stoichiometry    H2
 Framework group  D*H[C*(H.H)]
 Deg. of freedom     1
 Full point group                 D*H     NOp   8
 Rotational constants (GHZ):           0.0000000        1811.0675575        1811.0675575
 Leave Link  202 at Wed Jul 13 05:22:50 2022, MaxMem=  2147483648 cpu:               1.0 elap:               0.1
 (Enter /sw/linux/gaussian/g16/g16/l301.exe)
 Standard basis: def2TZVP (5D, 7F)
 Ernie: Thresh=  0.10000D-02 Tol=  0.10000D-05 Strict=F.
    12 basis functions,    16 primitive gaussians,    12 cartesian basis functions
     1 alpha electrons        1 beta electrons
       nuclear repulsion energy         0.7111110584 Hartrees.
 IExCor= 4639 DFT=T Ex+Corr=wB97XD ExCW=0 ScaHFX=  1.000000
 ScaDFX=  1.000000  1.000000  1.000000  1.000000 ScalE2=  1.000000  1.000000
 IRadAn=      5 IRanWt=     -1 IRanGd=            0 ICorTp=0 IEmpDi=121
 HFx  wShort=  0.000000 wLong=  0.200000 cFull=  0.222036 cShort=  0.000000 cLong=  0.777964
 DFx  wShort=  0.000000 wLong=  0.200000 cFull=  0.000000 cShort=  0.000000 cLong=  1.000000
 NAtoms=    2 NActive=    2 NUniq=    2 SFac= 1.00D+00 NAtFMM=   60 NAOKFM=F Big=F
 Integral buffers will be    131072 words long.
 Raffenetti 2 integral format.
 Two-electron integral symmetry is turned off.
 R6Disp:  Grimme-D2 Dispersion energy=       -0.0000003641 Hartrees.
 Nuclear repulsion after empirical dispersion term =        0.7111106943 Hartrees.
 Leave Link  301 at Wed Jul 13 05:22:50 2022, MaxMem=  2147483648 cpu:               1.6 elap:               0.1
 (Enter /sw/linux/gaussian/g16/g16/l302.exe)
 NPDir=0 NMtPBC=     1 NCelOv=     1 NCel=       1 NClECP=     1 NCelD=      1
         NCelK=      1 NCelE2=     1 NClLst=     1 CellRange=     0.0.
 One-electron integrals computed using PRISM.
   1 Symmetry operations used in ECPInt.
 ECPInt:  NShTT=      36 NPrTT=      84 LenC2=      37 LenP2D=      84.
 LDataN:  DoStor=T MaxTD1= 2 Len=   12
 NBasis=    12 RedAO= T EigKep=  1.85D-02  NBF=    12
 NBsUse=    12 1.00D-06 EigRej= -1.00D+00 NBFU=    12
 Precomputing XC quadrature grid using
 IXCGrd= 4 IRadAn=           5 IRanWt=          -1 IRanGd=           0 AccXCQ= 0.00D+00.
 Generated NRdTot=       0 NPtTot=           0 NUsed=           0 NTot=          32
 NSgBfM=    12    12    12    12    12 MxSgAt=     2 MxSgA2=     2.
 Leave Link  302 at Wed Jul 13 05:22:50 2022, MaxMem=  2147483648 cpu:               2.8 elap:               0.2
 (Enter /sw/linux/gaussian/g16/g16/l303.exe)
 DipDrv:  MaxL=1.
 Leave Link  303 at Wed Jul 13 05:22:51 2022, MaxMem=  2147483648 cpu:               2.7 elap:               0.2
 (Enter /sw/linux/gaussian/g16/g16/l401.exe)
 Initial guess from the checkpoint file:  "/usr/scratch/link/Gau-2746.chk"
 B after Tr=     0.000000    0.000000    0.000000
         Rot=    1.000000    0.000000    0.000000    0.000000 Ang=   0.00 deg.
 Guess basis will be translated and rotated to current coordinates.
 JPrj=2 DoOrth=T DoCkMO=T.
 Leave Link  401 at Wed Jul 13 05:22:51 2022, MaxMem=  2147483648 cpu:               2.2 elap:               0.1
 (Enter /sw/linux/gaussian/g16/g16/l502.exe)
 Keep R1 ints in memory in canonical form, NReq=17257088.
 FoFCou: FMM=F IPFlag=           0 FMFlag=           0 FMFlg1=           0
         NFxFlg=           0 DoJE=F BraDBF=F KetDBF=F FulRan=T
         wScrn=  0.000000 ICntrl=       600 IOpCl=  0 I1Cent=           0 NGrid=           0
         NMat0=    1 NMatS0=     78 NMatT0=    0 NMatD0=    1 NMtDS0=    0 NMtDT0=    0
 Symmetry not used in FoFCou.
 Two-electron integral symmetry not used.
 Closed shell SCF:
 Using DIIS extrapolation, IDIIS=  1040.
 NGot=  2147483648 LenX=  2147475872 LenY=  2147474990
 Requested convergence on RMS density matrix=1.00D-08 within 128 cycles.
 Requested convergence on MAX density matrix=1.00D-06.
 Requested convergence on             energy=1.00D-06.
 No special actions if energy rises.

 Cycle   1  Pass 1  IDiag  1:
 E= -1.17616784980993    
 DIIS: error= 7.85D-05 at cycle   1 NSaved=   1.
 NSaved= 1 IEnMin= 1 EnMin= -1.17616784980993     IErMin= 1 ErrMin= 7.85D-05
 ErrMax= 7.85D-05  0.00D+00 EMaxC= 1.00D-01 BMatC= 6.80D-08 BMatP= 6.80D-08
 IDIUse=1 WtCom= 1.00D+00 WtEn= 0.00D+00
 Coeff-Com:  0.100D+01
 Coeff:      0.100D+01
 Gap=     1.647 Goal=   None    Shift=    0.000
 RMSDP=1.11D-05 MaxDP=3.87D-05              OVMax= 1.69D-04

 Cycle   2  Pass 1  IDiag  1:
 E= -1.17616792478746     Delta-E=       -0.000000074978 Rises=F Damp=F
 DIIS: error= 7.43D-06 at cycle   2 NSaved=   2.
 NSaved= 2 IEnMin= 2 EnMin= -1.17616792478746     IErMin= 2 ErrMin= 7.43D-06
 ErrMax= 7.43D-06  0.00D+00 EMaxC= 1.00D-01 BMatC= 2.71D-10 BMatP= 6.80D-08
 IDIUse=1 WtCom= 1.00D+00 WtEn= 0.00D+00
 Coeff-Com: -0.742D-02 0.101D+01
 Coeff:     -0.742D-02 0.101D+01
 Gap=     0.656 Goal=   None    Shift=    0.000
 RMSDP=9.55D-07 MaxDP=3.59D-06 DE=-7.50D-08 OVMax= 9.62D-06

 Cycle   3  Pass 1  IDiag  1:
 E= -1.17616792510993     Delta-E=       -0.000000000322 Rises=F Damp=F
 DIIS: error= 1.04D-06 at cycle   3 NSaved=   3.
 NSaved= 3 IEnMin= 3 EnMin= -1.17616792510993     IErMin= 3 ErrMin= 1.04D-06
 ErrMax= 1.04D-06  0.00D+00 EMaxC= 1.00D-01 BMatC= 5.65D-12 BMatP= 2.71D-10
 IDIUse=1 WtCom= 1.00D+00 WtEn= 0.00D+00
 Coeff-Com:  0.975D-03-0.154D+00 0.115D+01
 Coeff:      0.975D-03-0.154D+00 0.115D+01
 Gap=     0.656 Goal=   None    Shift=    0.000
 RMSDP=2.48D-07 MaxDP=1.05D-06 DE=-3.22D-10 OVMax= 2.23D-06

 Cycle   4  Pass 1  IDiag  1:
 E= -1.17616792512002     Delta-E=       -0.000000000010 Rises=F Damp=F
 DIIS: error= 9.96D-08 at cycle   4 NSaved=   4.
 NSaved= 4 IEnMin= 4 EnMin= -1.17616792512002     IErMin= 4 ErrMin= 9.96D-08
 ErrMax= 9.96D-08  0.00D+00 EMaxC= 1.00D-01 BMatC= 4.63D-14 BMatP= 5.65D-12
 IDIUse=1 WtCom= 1.00D+00 WtEn= 0.00D+00
 Coeff-Com:  0.276D-03 0.241D-01-0.237D+00 0.121D+01
 Coeff:      0.276D-03 0.241D-01-0.237D+00 0.121D+01
 Gap=     0.656 Goal=   None    Shift=    0.000
 RMSDP=2.99D-08 MaxDP=1.38D-07 DE=-1.01D-11 OVMax= 2.30D-07

 Cycle   5  Pass 1  IDiag  1:
 E= -1.17616792512010     Delta-E=        0.000000000000 Rises=F Damp=F
 DIIS: error= 7.06D-13 at cycle   5 NSaved=   5.
 NSaved= 5 IEnMin= 5 EnMin= -1.17616792512010     IErMin= 5 ErrMin= 7.06D-13
 ErrMax= 7.06D-13  0.00D+00 EMaxC= 1.00D-01 BMatC= 2.11D-24 BMatP= 4.63D-14
 IDIUse=1 WtCom= 1.00D+00 WtEn= 0.00D+00
 Coeff-Com:  0.000D+00 0.000D+00 0.000D+00 0.000D+00 0.100D+01
 Coeff:      0.000D+00 0.000D+00 0.000D+00 0.000D+00 0.100D+01
 Gap=     0.656 Goal=   None    Shift=    0.000
 RMSDP=1.02D-13 MaxDP=3.08D-13 DE=-8.50D-14 OVMax= 1.40D-12

 SCF Done:  E(RwB97XD) =  -1.17616792512     A.U. after    5 cycles
            NFock=  5  Conv=0.10D-12     -V/T= 2.0356
 KE= 1.135782684502D+00 PE=-3.637295066126D+00 EE= 6.142337621592D-01
 Leave Link  502 at Wed Jul 13 05:22:51 2022, MaxMem=  2147483648 cpu:               4.4 elap:               0.3
 (Enter /sw/linux/gaussian/g16/g16/l701.exe)
 ... and contract with generalized density number  0.
 Compute integral first derivatives.
 R6Disp: Adding Grimme-D2 dispersion energy 1st derivatives to the gradient.
   1 Symmetry operations used in ECPInt.
 ECPInt:  NShTT=      36 NPrTT=      84 LenC2=      37 LenP2D=      84.
 LDataN:  DoStor=T MaxTD1= 3 Len=   28
 Leave Link  701 at Wed Jul 13 05:22:51 2022, MaxMem=  2147483648 cpu:               3.0 elap:               0.2
 (Enter /sw/linux/gaussian/g16/g16/l702.exe)
 L702 exits ... SP integral derivatives will be done elsewhere.
 Leave Link  702 at Wed Jul 13 05:22:51 2022, MaxMem=  2147483648 cpu:               1.7 elap:               0.1
 (Enter /sw/linux/gaussian/g16/g16/l703.exe)
 Integral derivatives from FoFJK, PRISM(SPDF).
 Compute integral first derivatives, UseDBF=F ICtDFT=           0.
 Calling FoFJK, ICntrl=      2127 FMM=F ISym2X=0 I1Cent= 0 IOpClX= 0 NMat=1 NMatS=1 NMatT=0.
 FoFJK:  IHMeth= 1 ICntrl=    2127 DoSepK=T KAlg= 0 I1Cent=           0 FoldK=F
 IRaf=         1 NMat=       1 IRICut=       1 DoRegI=T DoRafI=F ISym2E= 0 IDoP0=0 IntGTp=1.
 FoFCou: FMM=F IPFlag=           0 FMFlag=      100000 FMFlg1=         800
         NFxFlg=           0 DoJE=F BraDBF=F KetDBF=F FulRan=T
         wScrn=  0.000000 ICntrl=      2527 IOpCl=  0 I1Cent=           0 NGrid=           0
         NMat0=    1 NMatS0=      1 NMatT0=    0 NMatD0=    1 NMtDS0=    0 NMtDT0=    0
 Symmetry not used in FoFCou.
 Leave Link  703 at Wed Jul 13 05:22:52 2022, MaxMem=  2147483648 cpu:               3.6 elap:               0.2
 (Enter /sw/linux/gaussian/g16/g16/l716.exe)
 Dipole        = 7.10542736D-15-2.44249065D-15-7.10542736D-15
 -------------------------------------------------------------------
 Center     Atomic                   Forces (Hartrees/Bohr)
 Number     Number              X              Y              Z
 -------------------------------------------------------------------
      1        1          -0.000000497   -0.000000497    0.000000497
      2        1           0.000000497    0.000000497   -0.000000497
 -------------------------------------------------------------------
 Cartesian Forces:  Max     0.000000497 RMS     0.000000497
 Leave Link  716 at Wed Jul 13 05:22:52 2022, MaxMem=  2147483648 cpu:               1.5 elap:               0.1
 (Enter /sw/linux/gaussian/g16/g16/l103.exe)

 GradGradGradGradGradGradGradGradGradGradGradGradGradGradGradGradGradGrad
 Berny optimization.
 Using GEDIIS/GDIIS optimizer.
 Red2BG is reusing G-inverse.
 Internal  Forces:  Max     0.000000861 RMS     0.000000861
 Search for a local minimum.
 Step number   3 out of a maximum of   20
 All quantities printed in internal units (Hartrees-Bohrs-Radians)
 RMS Force = .86054D-06 SwitMx=.10000D-02 MixMth= 2
 Mixed Optimization -- En-DIIS/RFO-DIIS
 Swapping is turned off.
 Update second derivatives using D2CorX and points    2    3
 DE= -3.44D-07 DEPred=-3.77D-07 R= 9.12D-01
 Trust test= 9.12D-01 RLast= 1.36D-03 DXMaxT set to 3.00D-01
 The second derivative matrix:
                          R1
           R1           0.37473
 ITU=  0  1
     Eigenvalues ---    0.37473
 En-DIIS/RFO-DIIS/Sim-DIIS IScMMF=       -3 using points:     3    2
 RFO step:  Lambda=-1.97614147D-12.
 NNeg= 0 NGDIIS= 2 SimSw=  2.50D-03 Rises=F DC= -3.44D-07 SmlDif=  1.00D-05
 NRisDI= 0 DoIntr=F SqrtH=F CThrHd= 10.0 CDAdj=  3.0
 RMS Error=  0.2296403672D-05 NUsed= 2 OKEnD=F EnDIS=F
 InvSVX:  RCond= 2.07D-06 Info=           0 Equed=N FErr=  8.90D-16 BErr=  0.00D+00
 DidBck=F Rises=F RFO-DIIS coefs:    0.99831    0.00169
 Iteration  1 RMS(Cart)=  0.00000162 RMS(Int)=  0.00000000
 Iteration  2 RMS(Cart)=  0.00000000 RMS(Int)=  0.00000000
 ITry= 1 IFail=0 DXMaxC= 6.63D-07 DCOld= 1.00D+10 DXMaxT= 3.00D-01 DXLimC= 3.00D+00 Rises=F
 Variable       Old X    -DE/DX   Delta X   Delta X   Delta X     New X
                                 (Linear)    (Quad)   (Total)
    R1        1.40625   0.00000   0.00000   0.00000   0.00000   1.40625
         Item               Value     Threshold  Converged?
 Maximum Force            0.000001     0.000450     YES
 RMS     Force            0.000001     0.000300     YES
 Maximum Displacement     0.000001     0.001800     YES
 RMS     Displacement     0.000002     0.001200     YES
 Predicted change in Energy=-9.880757D-13
 Optimization completed.
    -- Stationary point found.
                           ----------------------------
                           !   Optimized Parameters   !
                           ! (Angstroms and Degrees)  !
 --------------------------                            --------------------------
 ! Name  Definition              Value          Derivative Info.                !
 --------------------------------------------------------------------------------
 ! R1    R(1,2)                  0.7442         -DE/DX =    0.0                 !
 --------------------------------------------------------------------------------
 Lowest energy point so far.  Saving SCF results.
 Largest change from initial coordinates is atom    1       0.016 Angstoms.
 GradGradGradGradGradGradGradGradGradGradGradGradGradGradGradGradGradGrad

 Leave Link  103 at Wed Jul 13 05:22:52 2022, MaxMem=  2147483648 cpu:               2.5 elap:               0.2
 (Enter /sw/linux/gaussian/g16/g16/l202.exe)
                          Input orientation:                          
 ---------------------------------------------------------------------
 Center     Atomic      Atomic             Coordinates (Angstroms)
 Number     Number       Type             X           Y           Z
 ---------------------------------------------------------------------
      1          1           0       -2.114819   -0.214819    2.114819
      2          1           0       -1.685181    0.214819    1.685181
 ---------------------------------------------------------------------
 Symmetry turned off by external request.
 Stoichiometry    H2
 Framework group  D*H[C*(H.H)]
 Deg. of freedom     1
 Full point group                 D*H     NOp   8
 Rotational constants (GHZ):           0.0000000        1811.0675575        1811.0675575
 Leave Link  202 at Wed Jul 13 05:22:52 2022, MaxMem=  2147483648 cpu:               2.0 elap:               0.2
 (Enter /sw/linux/gaussian/g16/g16/l601.exe)
 Copying SCF densities to generalized density rwf, IOpCl= 0 IROHF=0.

 **********************************************************************

            Population analysis using the SCF Density.

 **********************************************************************

 Alpha  occ. eigenvalues --   -0.51650
 Alpha virt. eigenvalues --    0.13939   0.28583   0.55369   1.25442   1.25442
 Alpha virt. eigenvalues --    1.70495   2.03127   2.03127   2.09549   2.51814
 Alpha virt. eigenvalues --    3.52382
          Condensed to atoms (all electrons):
               1          2
     1  H    0.585672   0.414328
     2  H    0.414328   0.585672
 Mulliken charges:
               1
     1  H    0.000000
     2  H    0.000000
 Sum of Mulliken charges =   0.00000
 Mulliken charges with hydrogens summed into heavy atoms:
               1
 Electronic spatial extent (au):  <R**2>=             56.7644
 Charge=              0.0000 electrons
 Dipole moment (field-independent basis, Debye):
    X=              0.0000    Y=              0.0000    Z=              0.0000  Tot=              0.0000
 Quadrupole moment (field-independent basis, Debye-Ang):
   XX=             -1.8873   YY=             -1.8873   ZZ=             -1.8873
   XY=              0.1841   XZ=             -0.1841   YZ=             -0.1841
 Traceless Quadrupole moment (field-independent basis, Debye-Ang):
   XX=              0.0000   YY=              0.0000   ZZ=              0.0000
   XY=              0.1841   XZ=             -0.1841   YZ=             -0.1841
 Octapole moment (field-independent basis, Debye-Ang**2):
  XXX=             10.7575  YYY=              0.0000  ZZZ=            -10.7575  XYY=              3.5858
  XXY=             -0.6996  XXZ=             -2.8863  XZZ=              2.8863  YZZ=             -0.6996
  YYZ=             -3.5858  XYZ=              0.6996
 Hexadecapole moment (field-independent basis, Debye-Ang**3):
 XXXX=            -43.2777 YYYY=             -2.3991 ZZZZ=            -43.2777 XXXY=              1.8401
 XXXZ=             18.5992 YYYX=             -0.1536 YYYZ=              0.1536 ZZZX=             18.5992
 ZZZY=             -1.8401 XXYY=             -7.6056 XXZZ=            -11.7604 YYZZ=             -7.6056
 XXYZ=             -1.9497 YYXZ=              6.8571 ZZXY=              1.9497
 N-N= 7.111106943452D-01 E-N=-3.637295066125D+00  KE= 1.135782684502D+00
 No NMR shielding tensors so no spin-rotation constants.
 Leave Link  601 at Wed Jul 13 05:22:52 2022, MaxMem=  2147483648 cpu:               2.9 elap:               0.2
 (Enter /sw/linux/gaussian/g16/g16/l9999.exe)
 1\1\GINC-THINC381\FOpt\RwB97XD\def2TZVP\H2\LINK\13-Jul-2022\0\\#P opt 
 wb97xd/def2tzvp nosymm\\TITLE\\0,1\H,-2.1148191914,-0.2148191914,2.114
 8191914\H,-1.6851808086,0.2148191914,1.6851808086\\Version=ES64L-G16Re
 vB.01\HF=-1.1761679\RMSD=1.017e-13\RMSF=4.968e-07\Dipole=0.,0.,0.\Quad
 rupole=0.,0.,0.,0.1368714,-0.1368714,-0.1368714\PG=D*H [C*(H1.H1)]\\@


 A successful marriage requires falling in love
 many times, always with the same person.
                           -- Mignon McLaughlin
 Job cpu time:       0 days  0 hours  1 minutes 39.0 seconds.
 Elapsed time:       0 days  0 hours  0 minutes  6.6 seconds.
 File lengths (MBytes):  RWF=      6 Int=      0 D2E=      0 Chk=      1 Scr=      1
 Normal termination of Gaussian 16 at Wed Jul 13 05:22:52 2022.
