8
 energy: -7.336370653148 gnorm: 0.000101362693 xtb: 6.5.0 (746241f)
C           -0.89527725995316        1.38412863195354       -0.00027713559923
C            0.62550228974746        1.42252300471272        0.00005141511806
H            1.02261608305984        0.86945085385162       -0.84824700636481
H            0.98258954402671        2.44804234718158       -0.06317028011027
H            1.01946006063233        0.97906044438157        0.91182916881568
H           -1.28923472787155        1.82757523280084       -0.91206161921626
H           -1.25236367075714        0.35860861221897        0.06296114989505
H           -1.29239231888448        1.93721087289915        0.84801430746179
