8
 energy: -7.336153400901 gnorm: 0.011337472886 xtb: 6.5.0 (746241f)
C           -0.90300000000000        1.38390000000000       -0.00030000000000
C            0.63320000000000        1.42270000000000        0.00010000000000
H            1.02850000000000        0.86650000000000       -0.85290000000000
H            0.98820000000000        2.45380000000000       -0.06350000000000
H            1.02530000000000        0.97670000000000        0.91680000000000
H           -1.29510000000000        1.82990000000000       -0.91710000000000
H           -1.25800000000000        0.35290000000000        0.06330000000000
H           -1.29820000000000        1.94020000000000        0.85270000000000
8
 energy: -7.336361595890 gnorm: 0.002740764392 xtb: 6.5.0 (746241f)
C           -0.89698385333965        1.38407043020161       -0.00027644079897
C            0.62720692286941        1.42255662994105        0.00006282777619
H            1.02202547508478        0.86875541468302       -0.84930232093196
H            0.98192401867146        2.44927873646932       -0.06324909174676
H            1.01884029101644        0.97847870181952        0.91293936058326
H           -1.28861450144916        1.82814569249168       -0.91318099833167
H           -1.25171047145316        0.35738054869497        0.06305138884334
H           -1.29178788140012        1.93793384569883        0.84905527460658
8
 energy: -7.336370195932 gnorm: 0.000819346721 xtb: 6.5.0 (746241f)
C           -0.89567950206243        1.38411515909990       -0.00028132098702
C            0.62590491583569        1.42253099993391        0.00005845593473
H            1.02272036343285        0.86957109059537       -0.84808335549397
H            0.98270344669454        2.44784504914625       -0.06315538216983
H            1.01957172938598        0.97914720141574        0.91165051593290
H           -1.28934602271780        1.82748248058723       -0.91188481043982
H           -1.25247793213021        0.35880588520794        0.06295415903690
H           -1.29249699843861        1.93710213401368        0.84784173818613
8
 energy: -7.336370653148 gnorm: 0.000101343505 xtb: 6.5.0 (746241f)
C           -0.89527725995316        1.38412863195354       -0.00027713559923
C            0.62550228974746        1.42252300471272        0.00005141511806
H            1.02261608305984        0.86945085385162       -0.84824700636481
H            0.98258954402671        2.44804234718158       -0.06317028011027
H            1.01946006063233        0.97906044438157        0.91182916881568
H           -1.28923472787155        1.82757523280084       -0.91206161921626
H           -1.25236367075714        0.35860861221897        0.06296114989505
H           -1.29239231888448        1.93721087289915        0.84801430746179
