2
 energy: -7.904118324116 gnorm: 0.000071334793 xtb: 6.5.0 (746241f)
O           -1.75959205229715        1.36604766561909       -0.00000000000000
O           -0.56100794770285        1.53025233438091       -0.00000000000000
