2
 energy: -7.858916947243 gnorm: 0.246126731674 xtb: 6.5.0 (746241f)
O           -1.86870000000000        1.35110000000000        0.00000000000000
O           -0.45190000000000        1.54520000000000        0.00000000000000
2
 energy: -7.900646771545 gnorm: 0.094724249671 xtb: 6.5.0 (746241f)
O           -1.78534015165968        1.36252020508389       -0.00000000000000
O           -0.53525984834032        1.53377979491611       -0.00000000000000
2
 energy: -7.899889021070 gnorm: 0.130433421685 xtb: 6.5.0 (746241f)
O           -1.73417970160362        1.36952912896579       -0.00000000000000
O           -0.58642029839638        1.52677087103421       -0.00000000000000
2
 energy: -7.904025438682 gnorm: 0.016978795918 xtb: 6.5.0 (746241f)
O           -1.76362982198513        1.36549449573171       -0.00000000000000
O           -0.55697017801487        1.53080550426829       -0.00000000000000
2
 energy: -7.904116015641 gnorm: 0.002716503767 xtb: 6.5.0 (746241f)
O           -1.76023806927466        1.36595916202272       -0.00000000000000
O           -0.56036193072534        1.53034083797728       -0.00000000000000
2
 energy: -7.904118324116 gnorm: 0.000071339098 xtb: 6.5.0 (746241f)
O           -1.75959205229715        1.36604766561909       -0.00000000000000
O           -0.56100794770285        1.53025233438091       -0.00000000000000
