      -----------------------------------------------------------      
     |                   =====================                   |     
     |                           x T B                           |     
     |                   =====================                   |     
     |                         S. Grimme                         |     
     |          Mulliken Center for Theoretical Chemistry        |     
     |                    University of Bonn                     |     
      -----------------------------------------------------------      

   * xtb version 6.5.0 (746241f) compiled by 'ehlert@majestix' on 2022-05-15

   xtb is free software: you can redistribute it and/or modify it under
   the terms of the GNU Lesser General Public License as published by
   the Free Software Foundation, either version 3 of the License, or
   (at your option) any later version.
   
   xtb is distributed in the hope that it will be useful,
   but WITHOUT ANY WARRANTY; without even the implied warranty of
   MERCHANTABILITY or FITNESS FOR A PARTICULAR PURPOSE.  See the
   GNU Lesser General Public License for more details.
   
   Cite this work as:
   * C. Bannwarth, E. Caldeweyher, S. Ehlert, A. Hansen, P. Pracht,
     J. Seibert, S. Spicher, S. Grimme, WIREs Comput. Mol. Sci., 2020, 11,
     e01493. DOI: 10.1002/wcms.1493
   
   for GFN2-xTB:
   * C. Bannwarth, S. Ehlert and S. Grimme., J. Chem. Theory Comput., 2019,
     15, 1652-1671. DOI: 10.1021/acs.jctc.8b01176
   for GFN1-xTB:
   * S. Grimme, C. Bannwarth, P. Shushkov, J. Chem. Theory Comput., 2017,
     13, 1989-2009. DOI: 10.1021/acs.jctc.7b00118
   for GFN0-xTB:
   * P. Pracht, E. Caldeweyher, S. Ehlert, S. Grimme, ChemRxiv, 2019, preprint.
     DOI: 10.26434/chemrxiv.8326202.v1
   for GFN-FF:
   * S. Spicher and S. Grimme, Angew. Chem. Int. Ed., 2020, 59, 15665-15673.
     DOI: 10.1002/anie.202004239
   
   for ALPB and GBSA implicit solvation:
   * S. Ehlert, M. Stahn, S. Spicher, S. Grimme, J. Chem. Theory Comput.,
     2021, 17, 4250-4261. DOI: 10.1021/acs.jctc.1c00471
   
   for DFT-D4:
   * E. Caldeweyher, C. Bannwarth and S. Grimme, J. Chem. Phys., 2017,
     147, 034112. DOI: 10.1063/1.4993215
   * E. Caldeweyher, S. Ehlert, A. Hansen, H. Neugebauer, S. Spicher,
     C. Bannwarth and S. Grimme, J. Chem. Phys., 2019, 150, 154122.
     DOI: 10.1063/1.5090222
   * E. Caldeweyher, J.-M. Mewes, S. Ehlert and S. Grimme, Phys. Chem. Chem. Phys.
     2020, 22, 8499-8512. DOI: 10.1039/D0CP00502A
   
   for sTDA-xTB:
   * S. Grimme and C. Bannwarth, J. Chem. Phys., 2016, 145, 054103.
     DOI: 10.1063/1.4959605
   
   in the mass-spec context:
   * V. Asgeirsson, C. Bauer and S. Grimme, Chem. Sci., 2017, 8, 4879.
     DOI: 10.1039/c7sc00601b
   * J. Koopman and S. Grimme, ACS Omega 2019, 4, 12, 15120-15133.
     DOI: 10.1021/acsomega.9b02011
   
   for metadynamics refer to:
   * S. Grimme, J. Chem. Theory Comput., 2019, 155, 2847-2862
     DOI: 10.1021/acs.jctc.9b00143
   
   for SPH calculations refer to:
   * S. Spicher and S. Grimme, J. Chem. Theory Comput., 2021, 17, 1701-1714
     DOI: 10.1021/acs.jctc.0c01306
   
   with help from (in alphabetical order)
   P. Atkinson, C. Bannwarth, F. Bohle, G. Brandenburg, E. Caldeweyher
   M. Checinski, S. Dohm, S. Ehlert, S. Ehrlich, I. Gerasimov, C. Hölzer
   A. Katbashev, J. Koopman, C. Lavigne, S. Lehtola, F. März, M. Müller,
   F. Musil, H. Neugebauer, J. Pisarek, C. Plett, P. Pracht, F. Pultar,
   J. Seibert, P. Shushkov, S. Spicher, M. Stahn, M. Steiner, T. Strunk,
   J. Stückrath, T. Rose, and J. Unsleber
   
 * started run on 2022/07/14 at 15:23:23.623     

           -------------------------------------------------
          |                Calculation Setup                |
           -------------------------------------------------

          program call               : xtb -c 0 -u 0 abc.xyz --opt normal
          coordinate file            : abc.xyz
          omp threads                :                    16

   ID    Z sym.   atoms
    1    6 C      1, 2, 6, 8, 9, 12, 13, 15
    2    9 F      3, 14
    3    1 H      4, 10, 11, 16
    4   16 S      5, 7

           -------------------------------------------------
          |                 G F N 2 - x T B                 |
           -------------------------------------------------

        Reference                      10.1021/acs.jctc.8b01176
      * Hamiltonian:
        H0-scaling (s, p, d)           1.850000    2.230000    2.230000
        zeta-weighting                 0.500000
      * Dispersion:
        s8                             2.700000
        a1                             0.520000
        a2                             5.000000
        s9                             5.000000
      * Repulsion:
        kExp                           1.500000    1.000000
        rExp                           1.000000
      * Coulomb:
        alpha                          2.000000
        third order                    shell-resolved
        anisotropic                    true
        a3                             3.000000
        a5                             4.000000
        cn-shift                       1.200000
        cn-exp                         4.000000
        max-rad                        5.000000

q/qsh data taken from xtbrestart
CAMM data taken from xtbrestart

          ...................................................
          :                      SETUP                      :
          :.................................................:
          :  # basis functions                  64          :
          :  # atomic orbitals                  62          :
          :  # shells                           30          :
          :  # electrons                        62          :
          :  max. iterations                   250          :
          :  Hamiltonian                  GFN2-xTB          :
          :  restarted?                       true          :
          :  GBSA solvation                  false          :
          :  PC potential                    false          :
          :  electronic temp.          300.0000000     K    :
          :  accuracy                    1.0000000          :
          :  -> integral cutoff          0.2500000E+02      :
          :  -> integral neglect         0.1000000E-07      :
          :  -> SCF convergence          0.1000000E-05 Eh   :
          :  -> wf. convergence          0.1000000E-03 e    :
          :  Broyden damping             0.4000000          :
          ...................................................

 iter      E             dE          RMSdq      gap      omega  full diag
   1    -35.2917066 -0.352917E+02  0.592E+00    3.34       0.0  T
   2    -35.3249007 -0.331941E-01  0.444E+00    4.16       1.0  T
   3    -35.3101443  0.147564E-01  0.193E+00    3.57       1.0  T
   4    -35.3579687 -0.478244E-01  0.406E-01    3.92       1.0  T
   5    -35.3579222  0.464463E-04  0.217E-01    3.94       1.0  T
   6    -35.3583774 -0.455207E-03  0.397E-02    3.93       1.0  T
   7    -35.3583803 -0.289165E-05  0.170E-02    3.93       1.5  T
   8    -35.3583809 -0.536567E-06  0.439E-03    3.93       5.7  T
   9    -35.3583809 -0.380145E-07  0.190E-03    3.93      13.2  T
  10    -35.3583809 -0.901063E-08  0.686E-04    3.93      36.4  T
  11    -35.3583809 -0.535756E-08  0.175E-04    3.93     142.7  T

   *** convergence criteria satisfied after 11 iterations ***

         #    Occupation            Energy/Eh            Energy/eV
      -------------------------------------------------------------
         1        2.0000           -0.9063548             -24.6632
       ...           ...                  ...                  ...
        25        2.0000           -0.4521494             -12.3036
        26        2.0000           -0.4405248             -11.9873
        27        2.0000           -0.4291920             -11.6789
        28        2.0000           -0.4279973             -11.6464
        29        2.0000           -0.4077989             -11.0968
        30        2.0000           -0.3763601             -10.2413
        31        2.0000           -0.3678186             -10.0089 (HOMO)
        32                         -0.2234523              -6.0804 (LUMO)
        33                         -0.2175183              -5.9190
        34                         -0.2164808              -5.8907
        35                         -0.1905201              -5.1843
        36                         -0.1495190              -4.0686
       ...                                ...                  ...
        62                          6.7837190             184.5944
      -------------------------------------------------------------
                  HL-Gap            0.1443663 Eh            3.9284 eV
             Fermi-level           -0.2956355 Eh           -8.0447 eV

 SCC (total)                   0 d,  0 h,  0 min,  0.011 sec
 SCC setup                      ...        0 min,  0.000 sec (  0.883%)
 Dispersion                     ...        0 min,  0.000 sec (  0.655%)
 classical contributions        ...        0 min,  0.000 sec (  0.085%)
 integral evaluation            ...        0 min,  0.001 sec (  7.654%)
 iterations                     ...        0 min,  0.008 sec ( 72.045%)
 molecular gradient             ...        0 min,  0.002 sec ( 17.581%)
 printout                       ...        0 min,  0.000 sec (  0.956%)

         :::::::::::::::::::::::::::::::::::::::::::::::::::::
         ::                     SUMMARY                     ::
         :::::::::::::::::::::::::::::::::::::::::::::::::::::
         :: total energy             -33.411236185273 Eh    ::
         :: gradient norm              3.938099096644 Eh/a0 ::
         :: HOMO-LUMO gap              3.928407694271 eV    ::
         ::.................................................::
         :: SCC energy               -35.358380928453 Eh    ::
         :: -> isotropic ES            0.018808898280 Eh    ::
         :: -> anisotropic ES          0.008980201337 Eh    ::
         :: -> anisotropic XC         -0.019248039036 Eh    ::
         :: -> dispersion             -0.018036107795 Eh    ::
         :: repulsion energy           1.947148187284 Eh    ::
         :: add. restraining           0.000000000000 Eh    ::
         :: total charge               0.000000000000 e     ::
         :::::::::::::::::::::::::::::::::::::::::::::::::::::

      ----------------------------------------------------------- 
     |                   =====================                   |
     |                        A N C O P T                        |
     |                   =====================                   |
     |               Approximate Normal Coordinate               |
     |                Rational Function Optimizer                |
      ----------------------------------------------------------- 

          ...................................................
          :                      SETUP                      :
          :.................................................:
          :   optimization level            normal          :
          :   max. optcycles                   200          :
          :   ANC micro-cycles                  20          :
          :   degrees of freedom                42          :
          :.................................................:
          :   RF solver                   davidson          :
          :   write xtbopt.log                true          :
          :   linear?                        false          :
          :   energy convergence         0.5000000E-05 Eh   :
          :   grad. convergence          0.1000000E-02 Eh/α :
          :   maximium RF displ.         1.0000000          :
          :   Hlow (freq-cutoff)         0.1000000E-01      :
          :   Hmax (freq-cutoff)         5.0000000          :
          :   S6 in model hess.         20.0000000          :
          ...................................................

generating ANC from model Hessian ...
Using Lindh-Hessian (1995)
 Shifting diagonal of input Hessian by   0.000000000000000E+000
 Lowest  eigenvalues of input Hessian
    0.000000    0.000000    0.000000    0.000000    0.000000    0.000000
    0.010170    0.011185    0.016235    0.042385    0.044520    0.072349
    0.087852    0.095610    0.106974    0.115694    0.136802    0.153332
 Highest eigenvalues
    3.507229    3.509544    5.280502    5.481708    6.752777    6.937426
 

........................................................................
.............................. CYCLE    1 ..............................
........................................................................
   1    -35.3583809 -0.353584E+02  0.909E-05    3.93       0.0  T
   2    -35.3583809 -0.178844E-10  0.496E-05    3.93     504.5  T
   3    -35.3583809 -0.474643E-11  0.342E-05    3.93     730.3  T
     SCC iter.                  ...        0 min,  0.002 sec
     gradient                   ...        0 min,  0.001 sec
 * total energy  :   -33.4112362 Eh     change       -0.6347989E-10 Eh
   gradient norm :     3.9380999 Eh/α   predicted     0.0000000E+00 (-100.00%)
   displ. norm   :     0.6237888 α      lambda       -0.2350889E+01
   maximum displ.:     0.4859820 α      in ANC's #39, #26, #38, ...

........................................................................
.............................. CYCLE    2 ..............................
........................................................................
   1    -35.5039274 -0.355039E+02  0.264E+00    4.50       0.0  T
   2    -35.5151369 -0.112094E-01  0.161E+00    4.13       1.0  T
   3    -35.5177298 -0.259290E-02  0.861E-01    4.30       1.0  T
   4    -35.5210062 -0.327639E-02  0.255E-01    4.19       1.0  T
   5    -35.5215181 -0.511917E-03  0.114E-01    4.19       1.0  T
   6    -35.5215794 -0.612943E-04  0.189E-02    4.21       1.3  T
   7    -35.5215800 -0.575605E-06  0.743E-03    4.21       3.4  T
   8    -35.5215800 -0.568263E-07  0.362E-03    4.21       6.9  T
   9    -35.5215800 -0.218663E-07  0.916E-04    4.21      27.3  T
  10    -35.5215800 -0.883809E-09  0.454E-04    4.21      55.0  T
     SCC iter.                  ...        0 min,  0.006 sec
     gradient                   ...        0 min,  0.001 sec
 * total energy  :   -34.6195889 Eh     change       -0.1208353E+01 Eh
   gradient norm :     0.9702875 Eh/α   predicted    -0.1632825E+01 (  35.13%)
   displ. norm   :     0.4959528 α      lambda       -0.4013979E+00
   maximum displ.:     0.3614555 α      in ANC's #26, #28, #24, ...

........................................................................
.............................. CYCLE    3 ..............................
........................................................................
   1    -35.5354568 -0.355355E+02  0.120E+00    4.12       0.0  T
   2    -35.5395866 -0.412982E-02  0.796E-01    3.94       1.0  T
   3    -35.5399775 -0.390874E-03  0.329E-01    4.01       1.0  T
   4    -35.5403748 -0.397331E-03  0.167E-01    3.96       1.0  T
   5    -35.5405494 -0.174599E-03  0.655E-02    3.97       1.0  T
   6    -35.5405716 -0.222092E-04  0.138E-02    3.97       1.8  T
   7    -35.5405717 -0.958554E-07  0.749E-03    3.97       3.3  T
   8    -35.5405718 -0.559153E-07  0.376E-03    3.97       6.7  T
   9    -35.5405719 -0.101391E-06  0.797E-04    3.97      31.4  T
  10    -35.5405719 -0.579000E-09  0.257E-04    3.97      97.1  T
     SCC iter.                  ...        0 min,  0.006 sec
     gradient                   ...        0 min,  0.001 sec
 * total energy  :   -34.8968996 Eh     change       -0.2773106E+00 Eh
   gradient norm :     0.5085941 Eh/α   predicted    -0.2500647E+00 (  -9.83%)
   displ. norm   :     0.4472474 α      lambda       -0.1582588E+00
   maximum displ.:     0.2308810 α      in ANC's #26, #6, #24, ...

........................................................................
.............................. CYCLE    4 ..............................
........................................................................
   1    -35.5329486 -0.355329E+02  0.852E-01    3.90       0.0  T
   2    -35.5341343 -0.118570E-02  0.656E-01    3.82       1.0  T
   3    -35.5341764 -0.420380E-04  0.291E-01    3.85       1.0  T
   4    -35.5351121 -0.935729E-03  0.959E-02    3.84       1.0  T
   5    -35.5351559 -0.438149E-04  0.430E-02    3.83       1.0  T
   6    -35.5351619 -0.602788E-05  0.816E-03    3.83       3.1  T
   7    -35.5351620 -0.155432E-07  0.361E-03    3.83       6.9  T
   8    -35.5351620 -0.244517E-07  0.196E-03    3.83      12.7  T
   9    -35.5351620 -0.254296E-07  0.512E-04    3.83      48.8  T
  10    -35.5351620 -0.472646E-09  0.210E-04    3.83     119.3  T
     SCC iter.                  ...        0 min,  0.006 sec
     gradient                   ...        0 min,  0.001 sec
 * total energy  :   -35.0123385 Eh     change       -0.1154389E+00 Eh
   gradient norm :     0.2783237 Eh/α   predicted    -0.9495760E-01 ( -17.74%)
   displ. norm   :     0.4081378 α      lambda       -0.6865690E-01
   maximum displ.:     0.2146366 α      in ANC's #6, #14, #26, ...

........................................................................
.............................. CYCLE    5 ..............................
........................................................................
   1    -35.5040698 -0.355041E+02  0.628E-01    3.72       0.0  T
   2    -35.5044112 -0.341397E-03  0.493E-01    3.69       1.0  T
   3    -35.5044856 -0.744041E-04  0.238E-01    3.69       1.0  T
   4    -35.5051267 -0.641130E-03  0.613E-02    3.69       1.0  T
   5    -35.5051446 -0.179004E-04  0.290E-02    3.69       1.0  T
   6    -35.5051474 -0.284205E-05  0.620E-03    3.69       4.0  T
   7    -35.5051477 -0.263214E-06  0.317E-03    3.69       7.9  T
   8    -35.5051477 -0.376930E-07  0.146E-03    3.69      17.1  T
   9    -35.5051477 -0.950252E-08  0.422E-04    3.69      59.2  T
  10    -35.5051477 -0.179817E-09  0.122E-04    3.69     205.5  T
     SCC iter.                  ...        0 min,  0.006 sec
     gradient                   ...        0 min,  0.001 sec
 * total energy  :   -35.0597523 Eh     change       -0.4741380E-01 Eh
   gradient norm :     0.1423896 Eh/α   predicted    -0.4004682E-01 ( -15.54%)
   displ. norm   :     0.3774327 α      lambda       -0.2308520E-01
   maximum displ.:     0.2583179 α      in ANC's #6, #1, #14, ...

........................................................................
.............................. CYCLE    6 ..............................
........................................................................
   1    -35.4799631 -0.354800E+02  0.429E-01    3.63       0.0  T
   2    -35.4799897 -0.266046E-04  0.330E-01    3.62       1.0  T
   3    -35.4799980 -0.828729E-05  0.174E-01    3.62       1.0  T
   4    -35.4803641 -0.366137E-03  0.335E-02    3.62       1.0  T
   5    -35.4803668 -0.272827E-05  0.149E-02    3.62       1.7  T
   6    -35.4803675 -0.697149E-06  0.415E-03    3.62       6.0  T
   7    -35.4803676 -0.119342E-06  0.196E-03    3.62      12.8  T
   8    -35.4803676 -0.957866E-08  0.124E-03    3.62      20.1  T
   9    -35.4803677 -0.920333E-08  0.237E-04    3.62     105.5  T
  10    -35.4803677 -0.103533E-09  0.117E-04    3.62     212.9  T
     SCC iter.                  ...        0 min,  0.006 sec
     gradient                   ...        0 min,  0.001 sec
 * total energy  :   -35.0758783 Eh     change       -0.1612607E-01 Eh
   gradient norm :     0.0901939 Eh/α   predicted    -0.1318689E-01 ( -18.23%)
   displ. norm   :     0.3539850 α      lambda       -0.9522058E-02
   maximum displ.:     0.2267293 α      in ANC's #6, #1, #14, ...

........................................................................
.............................. CYCLE    7 ..............................
........................................................................
   1    -35.4679582 -0.354680E+02  0.352E-01    3.60       0.0  T
   2    -35.4679665 -0.834677E-05  0.247E-01    3.61       1.0  T
   3    -35.4678681  0.984313E-04  0.151E-01    3.61       1.0  T
   4    -35.4681662 -0.298081E-03  0.298E-02    3.61       1.0  T
   5    -35.4681696 -0.338768E-05  0.105E-02    3.61       2.4  T
   6    -35.4681698 -0.195814E-06  0.559E-03    3.61       4.5  T
   7    -35.4681701 -0.329839E-06  0.196E-03    3.61      12.8  T
   8    -35.4681701 -0.235980E-08  0.791E-04    3.61      31.6  T
   9    -35.4681701 -0.342879E-08  0.332E-04    3.61      75.3  T
     SCC iter.                  ...        0 min,  0.005 sec
     gradient                   ...        0 min,  0.001 sec
 * total energy  :   -35.0826698 Eh     change       -0.6791472E-02 Eh
   gradient norm :     0.0648068 Eh/α   predicted    -0.5357658E-02 ( -21.11%)
   displ. norm   :     0.3017961 α      lambda       -0.5040001E-02
   maximum displ.:     0.2159862 α      in ANC's #1, #6, #2, ...

........................................................................
.............................. CYCLE    8 ..............................
........................................................................
   1    -35.4661725 -0.354662E+02  0.310E-01    3.60       0.0  T
   2    -35.4662197 -0.471553E-04  0.202E-01    3.61       1.0  T
   3    -35.4661521  0.675803E-04  0.128E-01    3.61       1.0  T
   4    -35.4663395 -0.187450E-03  0.384E-02    3.61       1.0  T
   5    -35.4663517 -0.121528E-04  0.128E-02    3.62       2.0  T
   6    -35.4663530 -0.131339E-05  0.562E-03    3.61       4.5  T
   7    -35.4663532 -0.177705E-06  0.226E-03    3.61      11.1  T
   8    -35.4663532 -0.177151E-07  0.116E-03    3.61      21.5  T
   9    -35.4663532 -0.293169E-08  0.371E-04    3.61      67.5  T
  10    -35.4663532 -0.119385E-09  0.195E-04    3.61     128.0  T
     SCC iter.                  ...        0 min,  0.006 sec
     gradient                   ...        0 min,  0.001 sec
 * total energy  :   -35.0862373 Eh     change       -0.3567495E-02 Eh
   gradient norm :     0.0437786 Eh/α   predicted    -0.2749524E-02 ( -22.93%)
   displ. norm   :     0.1964322 α      lambda       -0.2685949E-02
   maximum displ.:     0.1543372 α      in ANC's #1, #6, #26, ...

........................................................................
.............................. CYCLE    9 ..............................
........................................................................
   1    -35.4725218 -0.354725E+02  0.232E-01    3.61       0.0  T
   2    -35.4725825 -0.606817E-04  0.147E-01    3.62       1.0  T
   3    -35.4725721  0.103960E-04  0.904E-02    3.62       1.0  T
   4    -35.4726387 -0.665422E-04  0.360E-02    3.62       1.0  T
   5    -35.4726529 -0.142001E-04  0.107E-02    3.63       2.3  T
   6    -35.4726538 -0.919939E-06  0.471E-03    3.62       5.3  T
   7    -35.4726539 -0.142858E-06  0.183E-03    3.62      13.7  T
   8    -35.4726539 -0.110769E-07  0.887E-04    3.62      28.2  T
   9    -35.4726539 -0.148257E-08  0.252E-04    3.62      99.3  T
     SCC iter.                  ...        0 min,  0.005 sec
     gradient                   ...        0 min,  0.001 sec
 * total energy  :   -35.0880453 Eh     change       -0.1808029E-02 Eh
   gradient norm :     0.0248134 Eh/α   predicted    -0.1394796E-02 ( -22.86%)
   displ. norm   :     0.0997446 α      lambda       -0.1015995E-02
   maximum displ.:     0.0805520 α      in ANC's #1, #26, #12, ...

........................................................................
.............................. CYCLE   10 ..............................
........................................................................
   1    -35.4808783 -0.354809E+02  0.121E-01    3.62       0.0  T
   2    -35.4808982 -0.199340E-04  0.742E-02    3.63       1.0  T
   3    -35.4808941  0.412630E-05  0.444E-02    3.63       1.0  T
   4    -35.4809060 -0.118922E-04  0.183E-02    3.63       1.4  T
   5    -35.4809107 -0.466060E-05  0.479E-03    3.63       5.2  T
   6    -35.4809108 -0.145622E-06  0.236E-03    3.63      10.6  T
   7    -35.4809109 -0.457514E-07  0.825E-04    3.63      30.3  T
   8    -35.4809109 -0.207169E-08  0.394E-04    3.63      63.4  T
     SCC iter.                  ...        0 min,  0.005 sec
     gradient                   ...        0 min,  0.002 sec
 * total energy  :   -35.0887080 Eh     change       -0.6627202E-03 Eh
   gradient norm :     0.0157509 Eh/α   predicted    -0.5130523E-03 ( -22.58%)
   displ. norm   :     0.0787701 α      lambda       -0.3412517E-03
   maximum displ.:     0.0553889 α      in ANC's #1, #6, #11, ...

........................................................................
.............................. CYCLE   11 ..............................
........................................................................
   1    -35.4855943 -0.354856E+02  0.740E-02    3.63       0.0  T
   2    -35.4855954 -0.117516E-05  0.435E-02    3.63       1.0  T
   3    -35.4855945  0.889403E-06  0.102E-02    3.63       2.4  T
   4    -35.4855957 -0.120115E-05  0.251E-03    3.63      10.0  T
   5    -35.4855957  0.314332E-07  0.203E-03    3.63      12.3  T
   6    -35.4855958 -0.581723E-07  0.416E-04    3.63      60.2  T
   7    -35.4855958 -0.777646E-09  0.250E-04    3.63      99.9  T
     SCC iter.                  ...        0 min,  0.004 sec
     gradient                   ...        0 min,  0.001 sec
 * total energy  :   -35.0889459 Eh     change       -0.2378688E-03 Eh
   gradient norm :     0.0126387 Eh/α   predicted    -0.1716849E-03 ( -27.82%)
   displ. norm   :     0.0889508 α      lambda       -0.2132595E-03
   maximum displ.:     0.0690398 α      in ANC's #1, #6, #11, ...

........................................................................
.............................. CYCLE   12 ..............................
........................................................................
   1    -35.4876763 -0.354877E+02  0.732E-02    3.63       0.0  T
   2    -35.4876776 -0.136610E-05  0.437E-02    3.63       1.0  T
   3    -35.4876702  0.739817E-05  0.232E-02    3.63       1.1  T
   4    -35.4876788 -0.856342E-05  0.444E-03    3.63       5.6  T
   5    -35.4876789 -0.130737E-06  0.262E-03    3.63       9.5  T
   6    -35.4876790 -0.823487E-07  0.606E-04    3.63      41.3  T
   7    -35.4876790 -0.118813E-08  0.275E-04    3.63      91.0  T
     SCC iter.                  ...        0 min,  0.004 sec
     gradient                   ...        0 min,  0.001 sec
 * total energy  :   -35.0890996 Eh     change       -0.1536836E-03 Eh
   gradient norm :     0.0095019 Eh/α   predicted    -0.1074734E-03 ( -30.07%)
   displ. norm   :     0.1090803 α      lambda       -0.1763284E-03
   maximum displ.:     0.0928844 α      in ANC's #1, #11, #2, ...

........................................................................
.............................. CYCLE   13 ..............................
........................................................................
   1    -35.4877112 -0.354877E+02  0.776E-02    3.63       0.0  T
   2    -35.4877147 -0.347456E-05  0.462E-02    3.63       1.0  T
   3    -35.4877083  0.644206E-05  0.264E-02    3.63       1.0  T
   4    -35.4877167 -0.843972E-05  0.667E-03    3.63       3.7  T
   5    -35.4877172 -0.473521E-06  0.301E-03    3.63       8.3  T
   6    -35.4877173 -0.916903E-07  0.103E-03    3.63      24.2  T
   7    -35.4877173 -0.924174E-08  0.350E-04    3.63      71.5  T
   8    -35.4877173 -0.513822E-09  0.112E-04    3.63     224.2  T
     SCC iter.                  ...        0 min,  0.005 sec
     gradient                   ...        0 min,  0.001 sec
 * total energy  :   -35.0892259 Eh     change       -0.1263448E-03 Eh
   gradient norm :     0.0066431 Eh/α   predicted    -0.8921380E-04 ( -29.39%)
   displ. norm   :     0.1131626 α      lambda       -0.1340235E-03
   maximum displ.:     0.0973502 α      in ANC's #1, #3, #5, ...

........................................................................
.............................. CYCLE   14 ..............................
........................................................................
   1    -35.4864091 -0.354864E+02  0.733E-02    3.62       0.0  T
   2    -35.4864126 -0.352529E-05  0.428E-02    3.61       1.0  T
   3    -35.4864081  0.454927E-05  0.238E-02    3.61       1.0  T
   4    -35.4864142 -0.615191E-05  0.693E-03    3.61       3.6  T
   5    -35.4864147 -0.501302E-06  0.313E-03    3.61       8.0  T
   6    -35.4864148 -0.791293E-07  0.112E-03    3.61      22.3  T
   7    -35.4864148 -0.135724E-07  0.342E-04    3.61      73.0  T
   8    -35.4864148 -0.418979E-09  0.126E-04    3.61     198.9  T
     SCC iter.                  ...        0 min,  0.005 sec
     gradient                   ...        0 min,  0.001 sec
 * total energy  :   -35.0893187 Eh     change       -0.9279149E-04 Eh
   gradient norm :     0.0061072 Eh/α   predicted    -0.6786964E-04 ( -26.86%)
   displ. norm   :     0.0832545 α      lambda       -0.8161530E-04
   maximum displ.:     0.0657758 α      in ANC's #1, #3, #5, ...

........................................................................
.............................. CYCLE   15 ..............................
........................................................................
   1    -35.4851755 -0.354852E+02  0.544E-02    3.60       0.0  T
   2    -35.4851768 -0.124636E-05  0.309E-02    3.60       1.0  T
   3    -35.4851744  0.236546E-05  0.157E-02    3.60       1.6  T
   4    -35.4851773 -0.285263E-05  0.485E-03    3.60       5.2  T
   5    -35.4851775 -0.210920E-06  0.235E-03    3.60      10.6  T
   6    -35.4851775 -0.431357E-07  0.734E-04    3.60      34.0  T
   7    -35.4851775 -0.591029E-08  0.282E-04    3.60      88.5  T
     SCC iter.                  ...        0 min,  0.004 sec
     gradient                   ...        0 min,  0.001 sec
 * total energy  :   -35.0893761 Eh     change       -0.5737623E-04 Eh
   gradient norm :     0.0064908 Eh/α   predicted    -0.4109017E-04 ( -28.38%)
   displ. norm   :     0.0619510 α      lambda       -0.5829711E-04
   maximum displ.:     0.0388344 α      in ANC's #1, #3, #5, ...

........................................................................
.............................. CYCLE   16 ..............................
........................................................................
   1    -35.4845513 -0.354846E+02  0.443E-02    3.59       0.0  T
   2    -35.4845516 -0.217123E-06  0.251E-02    3.59       1.0  T
   3    -35.4845506  0.996478E-06  0.912E-03    3.59       2.7  T
   4    -35.4845517 -0.109002E-05  0.299E-03    3.59       8.4  T
   5    -35.4845517 -0.518701E-07  0.134E-03    3.59      18.7  T
   6    -35.4845517 -0.161553E-07  0.438E-04    3.59      57.1  T
   7    -35.4845517 -0.135403E-08  0.241E-04    3.59     103.8  T
     SCC iter.                  ...        0 min,  0.004 sec
     gradient                   ...        0 min,  0.001 sec
 * total energy  :   -35.0894175 Eh     change       -0.4134972E-04 Eh
   gradient norm :     0.0063477 Eh/α   predicted    -0.2925991E-04 ( -29.24%)
   displ. norm   :     0.0536483 α      lambda       -0.4471524E-04
   maximum displ.:     0.0359368 α      in ANC's #3, #1, #2, ...

........................................................................
.............................. CYCLE   17 ..............................
........................................................................
   1    -35.4845520 -0.354846E+02  0.396E-02    3.58       0.0  T
   2    -35.4845522 -0.186217E-06  0.226E-02    3.58       1.1  T
   3    -35.4845520  0.203591E-06  0.494E-03    3.58       5.1  T
   4    -35.4845522 -0.233637E-06  0.208E-03    3.58      12.0  T
   5    -35.4845522 -0.208219E-07  0.116E-03    3.58      21.5  T
   6    -35.4845522 -0.114472E-07  0.373E-04    3.58      67.0  T
   7    -35.4845522 -0.108457E-08  0.195E-04    3.58     128.1  T
     SCC iter.                  ...        0 min,  0.004 sec
     gradient                   ...        0 min,  0.001 sec
 * total energy  :   -35.0894500 Eh     change       -0.3256151E-04 Eh
   gradient norm :     0.0059313 Eh/α   predicted    -0.2242381E-04 ( -31.13%)
   displ. norm   :     0.0638716 α      lambda       -0.4341370E-04
   maximum displ.:     0.0436452 α      in ANC's #3, #1, #2, ...

........................................................................
.............................. CYCLE   18 ..............................
........................................................................
   1    -35.4849182 -0.354849E+02  0.458E-02    3.57       0.0  T
   2    -35.4849187 -0.428143E-06  0.261E-02    3.57       1.0  T
   3    -35.4849183  0.381875E-06  0.696E-03    3.57       3.6  T
   4    -35.4849187 -0.437980E-06  0.267E-03    3.57       9.4  T
   5    -35.4849187 -0.397708E-07  0.138E-03    3.57      18.2  T
   6    -35.4849188 -0.212940E-07  0.443E-04    3.57      56.4  T
   7    -35.4849188 -0.186870E-08  0.187E-04    3.57     133.9  T
     SCC iter.                  ...        0 min,  0.004 sec
     gradient                   ...        0 min,  0.001 sec
 * total energy  :   -35.0894825 Eh     change       -0.3246646E-04 Eh
   gradient norm :     0.0056964 Eh/α   predicted    -0.2179714E-04 ( -32.86%)
   displ. norm   :     0.0907626 α      lambda       -0.5175261E-04
   maximum displ.:     0.0584240 α      in ANC's #3, #1, #2, ...

........................................................................
.............................. CYCLE   19 ..............................
........................................................................
   1    -35.4853947 -0.354854E+02  0.649E-02    3.55       0.0  T
   2    -35.4853953 -0.685730E-06  0.368E-02    3.55       1.0  T
   3    -35.4853936  0.178463E-05  0.128E-02    3.55       1.9  T
   4    -35.4853954 -0.188404E-05  0.458E-03    3.55       5.5  T
   5    -35.4853956 -0.182599E-06  0.179E-03    3.55      14.0  T
   6    -35.4853956 -0.243645E-07  0.500E-04    3.55      50.0  T
   7    -35.4853956 -0.226566E-08  0.224E-04    3.55     111.6  T
     SCC iter.                  ...        0 min,  0.004 sec
     gradient                   ...        0 min,  0.001 sec
 * total energy  :   -35.0895211 Eh     change       -0.3865337E-04 Eh
   gradient norm :     0.0057213 Eh/α   predicted    -0.2608877E-04 ( -32.51%)
   displ. norm   :     0.1168910 α      lambda       -0.5949615E-04
   maximum displ.:     0.0715662 α      in ANC's #1, #3, #12, ...

........................................................................
.............................. CYCLE   20 ..............................
........................................................................
   1    -35.4856654 -0.354857E+02  0.845E-02    3.53       0.0  T
   2    -35.4856661 -0.679666E-06  0.479E-02    3.53       1.0  T
   3    -35.4856612  0.481155E-05  0.195E-02    3.53       1.3  T
   4    -35.4856665 -0.526747E-05  0.527E-03    3.53       4.7  T
   5    -35.4856667 -0.147377E-06  0.187E-03    3.53      13.3  T
   6    -35.4856667 -0.257281E-07  0.554E-04    3.53      45.2  T
   7    -35.4856667 -0.232128E-08  0.283E-04    3.53      88.4  T
     SCC iter.                  ...        0 min,  0.004 sec
     gradient                   ...        0 min,  0.001 sec
 * total energy  :   -35.0895650 Eh     change       -0.4382713E-04 Eh
   gradient norm :     0.0058102 Eh/α   predicted    -0.3015332E-04 ( -31.20%)
   displ. norm   :     0.1204663 α      lambda       -0.5987496E-04
   maximum displ.:     0.0769519 α      in ANC's #1, #3, #12, ...
 * RMSD in coord.:     0.6974086 α      energy gain  -0.1678329E+01 Eh

generating ANC from model Hessian ...
Using Lindh-Hessian (1995)
 Shifting diagonal of input Hessian by   7.269341918875297E-003
 Lowest  eigenvalues of input Hessian
    0.000000    0.000000    0.000000    0.000000    0.000000    0.000000
    0.010000    0.011146    0.011629    0.025536    0.026401    0.029702
    0.033783    0.043546    0.053164    0.056885    0.098422    0.098566
 Highest eigenvalues
    1.773496    1.784601    1.853016    2.003825    2.043970    2.061698
 

........................................................................
.............................. CYCLE   21 ..............................
........................................................................
   1    -35.4856178 -0.354856E+02  0.879E-02    3.50       0.0  T
   2    -35.4856182 -0.425774E-06  0.498E-02    3.50       1.0  T
   3    -35.4856124  0.584126E-05  0.209E-02    3.51       1.2  T
   4    -35.4856189 -0.647539E-05  0.509E-03    3.50       4.9  T
   5    -35.4856189 -0.534653E-07  0.122E-03    3.50      20.5  T
   6    -35.4856189 -0.148450E-07  0.497E-04    3.50      50.3  T
   7    -35.4856189 -0.921794E-09  0.290E-04    3.50      86.3  T
     SCC iter.                  ...        0 min,  0.004 sec
     gradient                   ...        0 min,  0.001 sec
 * total energy  :   -35.0896082 Eh     change       -0.4323795E-04 Eh
   gradient norm :     0.0058044 Eh/α   predicted     0.0000000E+00 (-100.00%)
   displ. norm   :     0.0755450 α      lambda       -0.1884918E-03
   maximum displ.:     0.0478407 α      in ANC's #7, #3, #1, ...

........................................................................
.............................. CYCLE   22 ..............................
........................................................................
   1    -35.4857368 -0.354857E+02  0.534E-02    3.49       0.0  T
   2    -35.4857375 -0.642354E-06  0.267E-02    3.49       1.0  T
   3    -35.4857341  0.333360E-05  0.171E-02    3.49       1.5  T
   4    -35.4857384 -0.424516E-05  0.429E-03    3.49       5.8  T
   5    -35.4857384 -0.334662E-07  0.224E-03    3.49      11.2  T
   6    -35.4857385 -0.443535E-07  0.493E-04    3.49      50.7  T
   7    -35.4857385 -0.226795E-08  0.212E-04    3.49     118.2  T
     SCC iter.                  ...        0 min,  0.004 sec
     gradient                   ...        0 min,  0.001 sec
 * total energy  :   -35.0897293 Eh     change       -0.1211163E-03 Eh
   gradient norm :     0.0025085 Eh/α   predicted    -0.9478216E-04 ( -21.74%)
   displ. norm   :     0.1202641 α      lambda       -0.1078635E-03
   maximum displ.:     0.0927248 α      in ANC's #1, #3, #7, ...

........................................................................
.............................. CYCLE   23 ..............................
........................................................................
   1    -35.4856707 -0.354857E+02  0.805E-02    3.47       0.0  T
   2    -35.4856718 -0.104636E-05  0.445E-02    3.47       1.0  T
   3    -35.4856638  0.798160E-05  0.252E-02    3.47       1.0  T
   4    -35.4856731 -0.931523E-05  0.632E-03    3.47       4.0  T
   5    -35.4856732 -0.110366E-06  0.301E-03    3.47       8.3  T
   6    -35.4856733 -0.105098E-06  0.704E-04    3.47      35.5  T
   7    -35.4856733 -0.370102E-08  0.335E-04    3.47      74.7  T
     SCC iter.                  ...        0 min,  0.004 sec
     gradient                   ...        0 min,  0.001 sec
 * total energy  :   -35.0898191 Eh     change       -0.8978586E-04 Eh
   gradient norm :     0.0020521 Eh/α   predicted    -0.5471022E-04 ( -39.07%)
   displ. norm   :     0.1802287 α      lambda       -0.1325341E-03
   maximum displ.:     0.1374640 α      in ANC's #1, #3, #7, ...

........................................................................
.............................. CYCLE   24 ..............................
........................................................................
   1    -35.4852592 -0.354853E+02  0.120E-01    3.43       0.0  T
   2    -35.4852612 -0.198962E-05  0.668E-02    3.43       1.0  T
   3    -35.4852456  0.156423E-04  0.348E-02    3.43       1.0  T
   4    -35.4852635 -0.178939E-04  0.882E-03    3.43       2.8  T
   5    -35.4852637 -0.232193E-06  0.409E-03    3.43       6.1  T
   6    -35.4852639 -0.199823E-06  0.102E-03    3.43      24.6  T
   7    -35.4852639 -0.759411E-08  0.468E-04    3.43      53.5  T
   8    -35.4852639 -0.703494E-09  0.193E-04    3.43     129.3  T
     SCC iter.                  ...        0 min,  0.005 sec
     gradient                   ...        0 min,  0.001 sec
 * total energy  :   -35.0899445 Eh     change       -0.1254390E-03 Eh
   gradient norm :     0.0044934 Eh/α   predicted    -0.6841770E-04 ( -45.46%)
   displ. norm   :     0.2660894 α      lambda       -0.2066277E-03
   maximum displ.:     0.1947581 α      in ANC's #1, #3, #2, ...

........................................................................
.............................. CYCLE   25 ..............................
........................................................................
   1    -35.4840507 -0.354841E+02  0.179E-01    3.36       0.0  T
   2    -35.4840550 -0.433061E-05  0.100E-01    3.36       1.0  T
   3    -35.4840258  0.292401E-04  0.476E-02    3.36       1.0  T
   4    -35.4840588 -0.330025E-04  0.129E-02    3.36       1.9  T
   5    -35.4840594 -0.634665E-06  0.568E-03    3.36       4.4  T
   6    -35.4840598 -0.368175E-06  0.160E-03    3.36      15.6  T
   7    -35.4840598 -0.210164E-07  0.661E-04    3.36      37.8  T
   8    -35.4840598 -0.129609E-08  0.302E-04    3.36      82.7  T
     SCC iter.                  ...        0 min,  0.005 sec
     gradient                   ...        0 min,  0.001 sec
 * total energy  :   -35.0901453 Eh     change       -0.2007135E-03 Eh
   gradient norm :     0.0074773 Eh/α   predicted    -0.1106288E-03 ( -44.88%)
   displ. norm   :     0.4041879 α      lambda       -0.3397825E-03
   maximum displ.:     0.2910453 α      in ANC's #1, #3, #2, ...

........................................................................
.............................. CYCLE   26 ..............................
........................................................................
   1    -35.4807753 -0.354808E+02  0.274E-01    3.25       0.0  T
   2    -35.4807862 -0.108709E-04  0.154E-01    3.25       1.0  T
   3    -35.4807276  0.585906E-04  0.681E-02    3.25       1.0  T
   4    -35.4807931 -0.654845E-04  0.197E-02    3.25       1.3  T
   5    -35.4807950 -0.197239E-05  0.831E-03    3.25       3.0  T
   6    -35.4807957 -0.709662E-06  0.270E-03    3.25       9.3  T
   7    -35.4807958 -0.654053E-07  0.100E-03    3.25      24.9  T
   8    -35.4807958 -0.286402E-08  0.490E-04    3.25      51.1  T
   9    -35.4807958 -0.477819E-09  0.158E-04    3.25     157.8  T
     SCC iter.                  ...        0 min,  0.005 sec
     gradient                   ...        0 min,  0.001 sec
 * total energy  :   -35.0904362 Eh     change       -0.2909095E-03 Eh
   gradient norm :     0.0125759 Eh/α   predicted    -0.1976274E-03 ( -32.07%)
   displ. norm   :     0.5349211 α      lambda       -0.4299947E-03
   maximum displ.:     0.3905610 α      in ANC's #1, #3, #10, ...

........................................................................
.............................. CYCLE   27 ..............................
........................................................................
   1    -35.4748218 -0.354748E+02  0.360E-01    3.11       0.0  T
   2    -35.4748424 -0.206089E-04  0.203E-01    3.10       1.0  T
   3    -35.4747491  0.932927E-04  0.868E-02    3.10       1.0  T
   4    -35.4748526 -0.103564E-03  0.258E-02    3.10       1.0  T
   5    -35.4748568 -0.417157E-05  0.108E-02    3.10       2.3  T
   6    -35.4748579 -0.110248E-05  0.381E-03    3.10       6.6  T
   7    -35.4748581 -0.133590E-06  0.135E-03    3.10      18.5  T
   8    -35.4748581 -0.544274E-08  0.676E-04    3.10      37.0  T
   9    -35.4748581 -0.998632E-09  0.210E-04    3.10     119.2  T
     SCC iter.                  ...        0 min,  0.005 sec
     gradient                   ...        0 min,  0.001 sec
 * total energy  :   -35.0906486 Eh     change       -0.2124296E-03 Eh
   gradient norm :     0.0214804 Eh/α   predicted    -0.2765038E-03 (  30.16%)
   displ. norm   :     0.0709106 α      lambda       -0.4241863E-03
   maximum displ.:     0.0562768 α      in ANC's #1, #3, #26, ...

........................................................................
.............................. CYCLE   28 ..............................
........................................................................
   1    -35.4795261 -0.354795E+02  0.639E-02    3.11       0.0  T
   2    -35.4795267 -0.588043E-06  0.358E-02    3.11       1.0  T
   3    -35.4795263  0.392723E-06  0.855E-03    3.11       2.9  T
   4    -35.4795267 -0.405689E-06  0.429E-03    3.11       5.8  T
   5    -35.4795268 -0.107085E-06  0.179E-03    3.11      14.0  T
   6    -35.4795268 -0.457466E-07  0.523E-04    3.11      47.8  T
   7    -35.4795268 -0.553449E-09  0.312E-04    3.11      80.3  T
     SCC iter.                  ...        0 min,  0.004 sec
     gradient                   ...        0 min,  0.001 sec
 * total energy  :   -35.0909977 Eh     change       -0.3491192E-03 Eh
   gradient norm :     0.0157897 Eh/α   predicted    -0.2131585E-03 ( -38.94%)
   displ. norm   :     0.4259664 α      lambda       -0.9665008E-03
   maximum displ.:     0.3179164 α      in ANC's #1, #3, #26, ...

........................................................................
.............................. CYCLE   29 ..............................
........................................................................
   1    -35.4857605 -0.354858E+02  0.283E-01    3.04       0.0  T
   2    -35.4857677 -0.720353E-05  0.158E-01    3.04       1.0  T
   3    -35.4857678 -0.556498E-07  0.257E-02    3.04       1.0  T
   4    -35.4857678 -0.361669E-07  0.153E-02    3.04       1.6  T
   5    -35.4857694 -0.161982E-05  0.454E-03    3.04       5.5  T
   6    -35.4857697 -0.266476E-06  0.149E-03    3.04      16.8  T
   7    -35.4857697 -0.920502E-08  0.881E-04    3.04      28.4  T
   8    -35.4857697 -0.226375E-08  0.409E-04    3.04      61.2  T
     SCC iter.                  ...        0 min,  0.005 sec
     gradient                   ...        0 min,  0.001 sec
 * total energy  :   -35.0917550 Eh     change       -0.7573283E-03 Eh
   gradient norm :     0.0095037 Eh/α   predicted    -0.5709495E-03 ( -24.61%)
   displ. norm   :     0.6728564 α      lambda       -0.9520763E-03
   maximum displ.:     0.4871795 α      in ANC's #1, #3, #26, ...

........................................................................
.............................. CYCLE   30 ..............................
........................................................................
   1    -35.4817881 -0.354818E+02  0.417E-01    2.90       0.0  T
   2    -35.4818117 -0.236363E-04  0.233E-01    2.89       1.0  T
   3    -35.4817957  0.159555E-04  0.504E-02    2.89       1.0  T
   4    -35.4818126 -0.168171E-04  0.267E-02    2.89       1.0  T
   5    -35.4818176 -0.501664E-05  0.102E-02    2.89       2.5  T
   6    -35.4818186 -0.999454E-06  0.391E-03    2.89       6.4  T
   7    -35.4818188 -0.177937E-06  0.145E-03    2.89      17.3  T
   8    -35.4818188 -0.292744E-09  0.686E-04    2.89      36.5  T
   9    -35.4818188 -0.297984E-08  0.158E-04    2.89     158.6  T
     SCC iter.                  ...        0 min,  0.005 sec
     gradient                   ...        0 min,  0.001 sec
 * total energy  :   -35.0924952 Eh     change       -0.7401277E-03 Eh
   gradient norm :     0.0135567 Eh/α   predicted    -0.6915355E-03 (  -6.57%)
   displ. norm   :     0.4388007 α      lambda       -0.9858654E-03
   maximum displ.:     0.2809755 α      in ANC's #1, #3, #26, ...

........................................................................
.............................. CYCLE   31 ..............................
........................................................................
   1    -35.4871979 -0.354872E+02  0.259E-01    2.87       0.0  T
   2    -35.4872057 -0.774800E-05  0.142E-01    2.87       1.0  T
   3    -35.4871953  0.103967E-04  0.391E-02    2.87       1.0  T
   4    -35.4872073 -0.120226E-04  0.195E-02    2.87       1.3  T
   5    -35.4872091 -0.176206E-05  0.501E-03    2.87       5.0  T
   6    -35.4872094 -0.290968E-06  0.216E-03    2.87      11.6  T
   7    -35.4872094 -0.188599E-07  0.127E-03    2.87      19.7  T
   8    -35.4872094 -0.505594E-08  0.423E-04    2.87      59.2  T
   9    -35.4872094 -0.112396E-08  0.101E-04    2.87     247.9  T
     SCC iter.                  ...        0 min,  0.005 sec
     gradient                   ...        0 min,  0.001 sec
 * total energy  :   -35.0930571 Eh     change       -0.5618766E-03 Eh
   gradient norm :     0.0117444 Eh/α   predicted    -0.5878387E-03 (   4.62%)
   displ. norm   :     0.4956309 α      lambda       -0.5852481E-03
   maximum displ.:     0.3593655 α      in ANC's #1, #3, #26, ...

........................................................................
.............................. CYCLE   32 ..............................
........................................................................
   1    -35.4787695 -0.354788E+02  0.303E-01    2.77       0.0  T
   2    -35.4787869 -0.173982E-04  0.171E-01    2.77       1.0  T
   3    -35.4787749  0.120035E-04  0.403E-02    2.76       1.0  T
   4    -35.4787869 -0.120058E-04  0.207E-02    2.77       1.2  T
   5    -35.4787909 -0.394326E-05  0.780E-03    2.76       3.2  T
   6    -35.4787913 -0.387282E-06  0.323E-03    2.76       7.7  T
   7    -35.4787914 -0.121220E-06  0.108E-03    2.76      23.2  T
   8    -35.4787914  0.306834E-09  0.476E-04    2.76      52.6  T
   9    -35.4787914 -0.164998E-08  0.610E-05    2.76     409.7  T
     SCC iter.                  ...        0 min,  0.005 sec
     gradient                   ...        0 min,  0.001 sec
 * total energy  :   -35.0933472 Eh     change       -0.2901071E-03 Eh
   gradient norm :     0.0185992 Eh/α   predicted    -0.3645099E-03 (  25.65%)
   displ. norm   :     0.1627008 α      lambda       -0.8987202E-03
   maximum displ.:     0.0883022 α      in ANC's #1, #26, #3, ...

........................................................................
.............................. CYCLE   33 ..............................
........................................................................
   1    -35.4855529 -0.354856E+02  0.152E-01    2.80       0.0  T
   2    -35.4855636 -0.106490E-04  0.869E-02    2.80       1.0  T
   3    -35.4855594  0.418212E-05  0.293E-02    2.80       1.0  T
   4    -35.4855650 -0.563372E-05  0.107E-02    2.80       2.3  T
   5    -35.4855654 -0.357755E-06  0.604E-03    2.80       4.1  T
   6    -35.4855658 -0.439928E-06  0.180E-03    2.80      13.9  T
   7    -35.4855658 -0.120998E-07  0.949E-04    2.80      26.3  T
   8    -35.4855658 -0.234962E-09  0.458E-04    2.80      54.5  T
     SCC iter.                  ...        0 min,  0.005 sec
     gradient                   ...        0 min,  0.001 sec
 * total energy  :   -35.0937119 Eh     change       -0.3646989E-03 Eh
   gradient norm :     0.0156406 Eh/α   predicted    -0.4612547E-03 (  26.48%)
   displ. norm   :     0.3428968 α      lambda       -0.6823584E-03
   maximum displ.:     0.2378833 α      in ANC's #3, #1, #26, ...

........................................................................
.............................. CYCLE   34 ..............................
........................................................................
   1    -35.4849704 -0.354850E+02  0.196E-01    2.77       0.0  T
   2    -35.4849834 -0.129479E-04  0.111E-01    2.76       1.0  T
   3    -35.4849475  0.358693E-04  0.617E-02    2.76       1.0  T
   4    -35.4849921 -0.445872E-04  0.156E-02    2.76       1.6  T
   5    -35.4849934 -0.130272E-05  0.769E-03    2.76       3.3  T
   6    -35.4849939 -0.473081E-06  0.250E-03    2.76      10.0  T
   7    -35.4849939 -0.276599E-07  0.133E-03    2.76      18.8  T
   8    -35.4849939 -0.748207E-08  0.463E-04    2.76      54.1  T
   9    -35.4849939 -0.231651E-09  0.136E-04    2.76     183.5  T
     SCC iter.                  ...        0 min,  0.005 sec
     gradient                   ...        0 min,  0.001 sec
 * total energy  :   -35.0941748 Eh     change       -0.4629213E-03 Eh
   gradient norm :     0.0093447 Eh/α   predicted    -0.3812996E-03 ( -17.63%)
   displ. norm   :     0.4371402 α      lambda       -0.6899328E-03
   maximum displ.:     0.2735645 α      in ANC's #1, #3, #26, ...

........................................................................
.............................. CYCLE   35 ..............................
........................................................................
   1    -35.4834099 -0.354834E+02  0.273E-01    2.69       0.0  T
   2    -35.4834230 -0.131494E-04  0.156E-01    2.69       1.0  T
   3    -35.4833776  0.454378E-04  0.617E-02    2.69       1.0  T
   4    -35.4834305 -0.529229E-04  0.188E-02    2.69       1.3  T
   5    -35.4834315 -0.993460E-06  0.985E-03    2.69       2.5  T
   6    -35.4834323 -0.825883E-06  0.227E-03    2.69      11.0  T
   7    -35.4834324 -0.435298E-07  0.122E-03    2.69      20.5  T
   8    -35.4834324 -0.216583E-08  0.444E-04    2.69      56.3  T
   9    -35.4834324 -0.455479E-09  0.150E-04    2.69     166.8  T
     SCC iter.                  ...        0 min,  0.005 sec
     gradient                   ...        0 min,  0.001 sec
 * total energy  :   -35.0944506 Eh     change       -0.2758415E-03 Eh
   gradient norm :     0.0185596 Eh/α   predicted    -0.4108894E-03 (  48.96%)
   displ. norm   :     0.1142296 α      lambda       -0.4561096E-03
   maximum displ.:     0.0787970 α      in ANC's #1, #26, #3, ...

........................................................................
.............................. CYCLE   36 ..............................
........................................................................
   1    -35.4881095 -0.354881E+02  0.773E-02    2.71       0.0  T
   2    -35.4881159 -0.644534E-05  0.462E-02    2.71       1.0  T
   3    -35.4881145  0.148894E-05  0.267E-02    2.71       1.0  T
   4    -35.4881202 -0.570278E-05  0.774E-03    2.71       3.2  T
   5    -35.4881206 -0.411863E-06  0.383E-03    2.71       6.5  T
   6    -35.4881207 -0.110049E-06  0.145E-03    2.71      17.2  T
   7    -35.4881207 -0.160144E-07  0.486E-04    2.71      51.4  T
   8    -35.4881207 -0.189580E-09  0.228E-04    2.71     109.9  T
     SCC iter.                  ...        0 min,  0.005 sec
     gradient                   ...        0 min,  0.001 sec
 * total energy  :   -35.0947579 Eh     change       -0.3072636E-03 Eh
   gradient norm :     0.0103930 Eh/α   predicted    -0.2310292E-03 ( -24.81%)
   displ. norm   :     0.3416280 α      lambda       -0.5211419E-03
   maximum displ.:     0.2357234 α      in ANC's #1, #3, #26, ...

........................................................................
.............................. CYCLE   37 ..............................
........................................................................
   1    -35.4863327 -0.354863E+02  0.200E-01    2.69       0.0  T
   2    -35.4863413 -0.862348E-05  0.114E-01    2.69       1.0  T
   3    -35.4863316  0.969453E-05  0.325E-02    2.69       1.0  T
   4    -35.4863429 -0.112796E-04  0.131E-02    2.69       1.9  T
   5    -35.4863440 -0.108947E-05  0.531E-03    2.69       4.7  T
   6    -35.4863441 -0.153381E-06  0.254E-03    2.69       9.9  T
   7    -35.4863442 -0.721603E-07  0.839E-04    2.69      29.8  T
   8    -35.4863442  0.134357E-09  0.366E-04    2.69      68.4  T
     SCC iter.                  ...        0 min,  0.005 sec
     gradient                   ...        0 min,  0.001 sec
 * total energy  :   -35.0950933 Eh     change       -0.3354304E-03 Eh
   gradient norm :     0.0081083 Eh/α   predicted    -0.2909802E-03 ( -13.25%)
   displ. norm   :     0.3432686 α      lambda       -0.4377260E-03
   maximum displ.:     0.2122347 α      in ANC's #1, #3, #26, ...

........................................................................
.............................. CYCLE   38 ..............................
........................................................................
   1    -35.4889821 -0.354890E+02  0.204E-01    2.67       0.0  T
   2    -35.4889948 -0.126488E-04  0.117E-01    2.67       1.0  T
   3    -35.4889723  0.224348E-04  0.478E-02    2.67       1.0  T
   4    -35.4890005 -0.281349E-04  0.141E-02    2.67       1.8  T
   5    -35.4890010 -0.498602E-06  0.694E-03    2.67       3.6  T
   6    -35.4890014 -0.461837E-06  0.162E-03    2.67      15.5  T
   7    -35.4890015 -0.208314E-07  0.816E-04    2.67      30.6  T
   8    -35.4890015 -0.241754E-08  0.301E-04    2.67      83.1  T
     SCC iter.                  ...        0 min,  0.005 sec
     gradient                   ...        0 min,  0.001 sec
 * total energy  :   -35.0953461 Eh     change       -0.2527342E-03 Eh
   gradient norm :     0.0097025 Eh/α   predicted    -0.2446493E-03 (  -3.20%)
   displ. norm   :     0.6248049 α      lambda       -0.5259890E-03
   maximum displ.:     0.4115013 α      in ANC's #1, #3, #26, ...

........................................................................
.............................. CYCLE   39 ..............................
........................................................................
   1    -35.4796394 -0.354796E+02  0.366E-01    2.59       0.0  T
   2    -35.4796802 -0.408387E-04  0.208E-01    2.59       1.0  T
   3    -35.4795696  0.110639E-03  0.109E-01    2.59       1.0  T
   4    -35.4797078 -0.138205E-03  0.257E-02    2.59       1.0  T
   5    -35.4797094 -0.160023E-05  0.137E-02    2.59       1.8  T
   6    -35.4797114 -0.196450E-05  0.389E-03    2.59       6.4  T
   7    -35.4797115 -0.110518E-06  0.182E-03    2.59      13.7  T
   8    -35.4797115 -0.135619E-07  0.720E-04    2.59      34.7  T
   9    -35.4797115  0.597254E-09  0.353E-04    2.59      70.9  T
     SCC iter.                  ...        0 min,  0.005 sec
     gradient                   ...        0 min,  0.001 sec
 * total energy  :   -35.0952256 Eh     change        0.1204347E-03 Eh
   gradient norm :     0.0213205 Eh/α   predicted    -0.3656705E-03 (-403.63%)
   displ. norm   :     0.2045238 α      lambda       -0.9805342E-03
   maximum displ.:     0.1427901 α      in ANC's #1, #3, #26, ...

........................................................................
.............................. CYCLE   40 ..............................
........................................................................
   1    -35.4936991 -0.354937E+02  0.200E-01    2.68       0.0  T
   2    -35.4937241 -0.249788E-04  0.112E-01    2.68       1.0  T
   3    -35.4937048  0.192242E-04  0.608E-02    2.68       1.0  T
   4    -35.4937344 -0.295292E-04  0.186E-02    2.68       1.3  T
   5    -35.4937364 -0.206049E-05  0.860E-03    2.68       2.9  T
   6    -35.4937370 -0.598159E-06  0.245E-03    2.68      10.2  T
   7    -35.4937371 -0.434258E-07  0.124E-03    2.68      20.1  T
   8    -35.4937371 -0.476908E-08  0.503E-04    2.68      49.7  T
   9    -35.4937371 -0.135877E-09  0.244E-04    2.68     102.3  T
     SCC iter.                  ...        0 min,  0.005 sec
     gradient                   ...        0 min,  0.001 sec
 * total energy  :   -35.0953798 Eh     change       -0.1541674E-03 Eh
   gradient norm :     0.0179796 Eh/α   predicted    -0.5107741E-03 ( 231.31%)
   displ. norm   :     0.1534235 α      lambda       -0.1383570E-02
   maximum displ.:     0.0870343 α      in ANC's #4, #9, #7, ...

........................................................................
.............................. CYCLE   41 ..............................
........................................................................
   1    -35.4902616 -0.354903E+02  0.243E-01    2.69       0.0  T
   2    -35.4905120 -0.250409E-03  0.194E-01    2.69       1.0  T
   3    -35.4907933 -0.281278E-03  0.906E-02    2.69       1.0  T
   4    -35.4907912  0.204203E-05  0.338E-02    2.69       1.0  T
   5    -35.4907995 -0.824126E-05  0.180E-02    2.69       1.4  T
   6    -35.4908022 -0.268114E-05  0.529E-03    2.69       4.7  T
   7    -35.4908023 -0.153739E-06  0.258E-03    2.69       9.7  T
   8    -35.4908023 -0.217694E-07  0.121E-03    2.69      20.7  T
   9    -35.4908023 -0.334508E-08  0.770E-04    2.69      32.5  T
  10    -35.4908023 -0.249665E-08  0.204E-04    2.69     122.8  T
     SCC iter.                  ...        0 min,  0.006 sec
     gradient                   ...        0 min,  0.001 sec
 * total energy  :   -35.0946816 Eh     change        0.6981424E-03 Eh
   gradient norm :     0.0362676 Eh/α   predicted    -0.7080688E-03 (-201.42%)
   displ. norm   :     0.1227881 α      lambda       -0.2092108E-02
   maximum displ.:     0.0633209 α      in ANC's #4, #9, #1, ...

........................................................................
.............................. CYCLE   42 ..............................
........................................................................
   1    -35.4899808 -0.354900E+02  0.189E-01    2.65       0.0  T
   2    -35.4901132 -0.132348E-03  0.151E-01    2.66       1.0  T
   3    -35.4902710 -0.157772E-03  0.724E-02    2.66       1.0  T
   4    -35.4902704  0.518562E-06  0.259E-02    2.66       1.0  T
   5    -35.4902752 -0.477712E-05  0.137E-02    2.66       1.8  T
   6    -35.4902768 -0.159365E-05  0.393E-03    2.66       6.4  T
   7    -35.4902769 -0.671225E-07  0.183E-03    2.66      13.6  T
   8    -35.4902769 -0.114457E-07  0.753E-04    2.66      33.2  T
   9    -35.4902769 -0.106766E-09  0.343E-04    2.66      72.9  T
     SCC iter.                  ...        0 min,  0.005 sec
     gradient                   ...        0 min,  0.001 sec
 * total energy  :   -35.0956428 Eh     change       -0.9611883E-03 Eh
   gradient norm :     0.0093616 Eh/α   predicted    -0.1061827E-02 (  10.47%)
   displ. norm   :     0.2558043 α      lambda       -0.4637376E-03
   maximum displ.:     0.1569688 α      in ANC's #1, #3, #26, ...
 * RMSD in coord.:     1.4753895 α      energy gain  -0.6077859E-02 Eh

generating ANC from model Hessian ...
Using Lindh-Hessian (1995)
 Shifting diagonal of input Hessian by   7.557669705104014E-003
 Lowest  eigenvalues of input Hessian
    0.000000    0.000000    0.000000    0.000000    0.000000    0.000000
    0.010000    0.011854    0.014014    0.021166    0.026101    0.026945
    0.043475    0.050275    0.051939    0.063836    0.068667    0.095184
 Highest eigenvalues
    1.731138    1.778292    1.851145    2.004777    2.019454    2.075617
 

........................................................................
.............................. CYCLE   43 ..............................
........................................................................
   1    -35.4881621 -0.354882E+02  0.196E-01    2.65       0.0  T
   2    -35.4881816 -0.194898E-04  0.110E-01    2.65       1.0  T
   3    -35.4881502  0.313709E-04  0.576E-02    2.65       1.0  T
   4    -35.4881896 -0.393723E-04  0.191E-02    2.65       1.3  T
   5    -35.4881923 -0.268953E-05  0.766E-03    2.65       3.3  T
   6    -35.4881926 -0.370423E-06  0.223E-03    2.65      11.2  T
   7    -35.4881927 -0.310129E-07  0.105E-03    2.65      23.8  T
   8    -35.4881927 -0.332646E-08  0.520E-04    2.65      48.1  T
   9    -35.4881927 -0.667562E-09  0.222E-04    2.65     112.6  T
     SCC iter.                  ...        0 min,  0.005 sec
     gradient                   ...        0 min,  0.001 sec
 * total energy  :   -35.0955283 Eh     change        0.1145266E-03 Eh
   gradient norm :     0.0189608 Eh/α   predicted     0.0000000E+00 (-100.00%)
   displ. norm   :     0.0580639 α      lambda       -0.3973860E-03
   maximum displ.:     0.0316654 α      in ANC's #4, #1, #5, ...

........................................................................
.............................. CYCLE   44 ..............................
........................................................................
   1    -35.4906658 -0.354907E+02  0.643E-02    2.65       0.0  T
   2    -35.4906692 -0.333489E-05  0.365E-02    2.66       1.0  T
   3    -35.4906661  0.311884E-05  0.215E-02    2.66       1.2  T
   4    -35.4906706 -0.454238E-05  0.724E-03    2.66       3.5  T
   5    -35.4906710 -0.409125E-06  0.287E-03    2.66       8.7  T
   6    -35.4906710 -0.406737E-07  0.857E-04    2.66      29.2  T
   7    -35.4906710 -0.275470E-08  0.441E-04    2.66      56.7  T
     SCC iter.                  ...        0 min,  0.004 sec
     gradient                   ...        0 min,  0.001 sec
 * total energy  :   -35.0957803 Eh     change       -0.2520101E-03 Eh
   gradient norm :     0.0071459 Eh/α   predicted    -0.1993618E-03 ( -20.89%)
   displ. norm   :     0.0441568 α      lambda       -0.7361372E-04
   maximum displ.:     0.0323484 α      in ANC's #1, #2, #3, ...

........................................................................
.............................. CYCLE   45 ..............................
........................................................................
   1    -35.4912906 -0.354913E+02  0.385E-02    2.66       0.0  T
   2    -35.4912919 -0.134428E-05  0.207E-02    2.66       1.2  T
   3    -35.4912912  0.766833E-06  0.123E-02    2.66       2.0  T
   4    -35.4912924 -0.121376E-05  0.426E-03    2.66       5.9  T
   5    -35.4912925 -0.138079E-06  0.162E-03    2.66      15.4  T
   6    -35.4912925 -0.163223E-07  0.466E-04    2.66      53.7  T
   7    -35.4912925 -0.132790E-08  0.230E-04    2.66     108.9  T
     SCC iter.                  ...        0 min,  0.004 sec
     gradient                   ...        0 min,  0.001 sec
 * total energy  :   -35.0958243 Eh     change       -0.4403283E-04 Eh
   gradient norm :     0.0022568 Eh/α   predicted    -0.3687757E-04 ( -16.25%)
   displ. norm   :     0.0350889 α      lambda       -0.1613777E-04
   maximum displ.:     0.0260677 α      in ANC's #1, #2, #3, ...

........................................................................
.............................. CYCLE   46 ..............................
........................................................................
   1    -35.4911006 -0.354911E+02  0.228E-02    2.66       0.0  T
   2    -35.4911008 -0.262486E-06  0.122E-02    2.66       2.1  T
   3    -35.4911007  0.157500E-06  0.521E-03    2.66       4.8  T
   4    -35.4911009 -0.208141E-06  0.208E-03    2.66      12.0  T
   5    -35.4911009 -0.269330E-07  0.765E-04    2.66      32.7  T
   6    -35.4911009 -0.403587E-08  0.269E-04    2.66      93.0  T
     SCC iter.                  ...        0 min,  0.004 sec
     gradient                   ...        0 min,  0.002 sec
 * total energy  :   -35.0958365 Eh     change       -0.1217536E-04 Eh
   gradient norm :     0.0013508 Eh/α   predicted    -0.8079641E-05 ( -33.64%)
   displ. norm   :     0.0752977 α      lambda       -0.1392102E-04
   maximum displ.:     0.0532907 α      in ANC's #1, #2, #3, ...

........................................................................
.............................. CYCLE   47 ..............................
........................................................................
   1    -35.4906040 -0.354906E+02  0.437E-02    2.66       0.0  T
   2    -35.4906045 -0.452099E-06  0.242E-02    2.66       1.0  T
   3    -35.4906043  0.227807E-06  0.635E-03    2.66       3.9  T
   4    -35.4906046 -0.292845E-06  0.313E-03    2.66       8.0  T
   5    -35.4906046 -0.553108E-07  0.106E-03    2.66      23.5  T
   6    -35.4906046 -0.776657E-08  0.445E-04    2.66      56.2  T
   7    -35.4906046 -0.164871E-08  0.183E-04    2.66     136.6  T
     SCC iter.                  ...        0 min,  0.004 sec
     gradient                   ...        0 min,  0.001 sec
 * total energy  :   -35.0958491 Eh     change       -0.1261654E-04 Eh
   gradient norm :     0.0019531 Eh/α   predicted    -0.6978443E-05 ( -44.69%)
   displ. norm   :     0.0403446 α      lambda       -0.5958138E-05
   maximum displ.:     0.0299255 α      in ANC's #1, #2, #6, ...

........................................................................
.............................. CYCLE   48 ..............................
........................................................................
   1    -35.4906662 -0.354907E+02  0.220E-02    2.66       0.0  T
   2    -35.4906663 -0.608568E-07  0.124E-02    2.66       2.0  T
   3    -35.4906662  0.877957E-07  0.338E-03    2.66       7.4  T
   4    -35.4906663 -0.108792E-06  0.136E-03    2.66      18.4  T
   5    -35.4906663 -0.619792E-08  0.398E-04    2.66      62.9  T
   6    -35.4906663 -0.186019E-08  0.142E-04    2.66     176.3  T
     SCC iter.                  ...        0 min,  0.004 sec
     gradient                   ...        0 min,  0.001 sec
 * total energy  :   -35.0958570 Eh     change       -0.7872578E-05 Eh
   gradient norm :     0.0015367 Eh/α   predicted    -0.2981829E-05 ( -62.12%)
   displ. norm   :     0.0674981 α      lambda       -0.9479765E-05
   maximum displ.:     0.0493768 α      in ANC's #1, #2, #6, ...

........................................................................
.............................. CYCLE   49 ..............................
........................................................................
   1    -35.4908780 -0.354909E+02  0.380E-02    2.66       0.0  T
   2    -35.4908783 -0.231513E-06  0.212E-02    2.66       1.2  T
   3    -35.4908781  0.147098E-06  0.514E-03    2.66       4.9  T
   4    -35.4908783 -0.188360E-06  0.249E-03    2.66      10.1  T
   5    -35.4908784 -0.313651E-07  0.837E-04    2.66      29.9  T
   6    -35.4908784 -0.734415E-08  0.278E-04    2.66      90.1  T
     SCC iter.                  ...        0 min,  0.004 sec
     gradient                   ...        0 min,  0.001 sec
 * total energy  :   -35.0958678 Eh     change       -0.1079406E-04 Eh
   gradient norm :     0.0005006 Eh/α   predicted    -0.4750074E-05 ( -55.99%)
   displ. norm   :     0.0702713 α      lambda       -0.5624318E-05
   maximum displ.:     0.0519347 α      in ANC's #1, #2, #9, ...

........................................................................
.............................. CYCLE   50 ..............................
........................................................................
   1    -35.4909132 -0.354909E+02  0.397E-02    2.66       0.0  T
   2    -35.4909134 -0.168012E-06  0.223E-02    2.66       1.1  T
   3    -35.4909134  0.356871E-08  0.361E-03    2.66       6.9  T
   4    -35.4909134 -0.158101E-07  0.216E-03    2.66      11.6  T
   5    -35.4909135 -0.397109E-07  0.526E-04    2.66      47.6  T
   6    -35.4909135 -0.254609E-08  0.242E-04    2.66     103.2  T
     SCC iter.                  ...        0 min,  0.004 sec
     gradient                   ...        0 min,  0.001 sec
 * total energy  :   -35.0958738 Eh     change       -0.6041830E-05 Eh
   gradient norm :     0.0006250 Eh/α   predicted    -0.2817734E-05 ( -53.36%)
   displ. norm   :     0.0518705 α      lambda       -0.2746709E-05
   maximum displ.:     0.0387061 α      in ANC's #1, #2, #8, ...

........................................................................
.............................. CYCLE   51 ..............................
........................................................................
   1    -35.4909478 -0.354909E+02  0.287E-02    2.66       0.0  T
   2    -35.4909479 -0.826116E-07  0.161E-02    2.66       1.6  T
   3    -35.4909479 -0.647596E-09  0.260E-03    2.66       9.6  T
   4    -35.4909479  0.457511E-08  0.180E-03    2.66      13.9  T
   5    -35.4909479 -0.319456E-07  0.274E-04    2.66      91.1  T
   6    -35.4909479 -0.430248E-09  0.151E-04    2.66     166.0  T
     SCC iter.                  ...        0 min,  0.004 sec
     gradient                   ...        0 min,  0.001 sec
 * total energy  :   -35.0958766 Eh     change       -0.2722751E-05 Eh
   gradient norm :     0.0005016 Eh/α   predicted    -0.1374069E-05 ( -49.53%)
   displ. norm   :     0.0262228 α      lambda       -0.9635730E-06
   maximum displ.:     0.0208714 α      in ANC's #1, #2, #14, ...

   *** GEOMETRY OPTIMIZATION CONVERGED AFTER 51 ITERATIONS ***

------------------------------------------------------------------------
 total energy gain   :        -1.6846404 Eh    -1057.1278 kcal/mol
 total RMSD          :         1.7567054 a0        0.9296 Å
 total power (kW/mol):       -86.7259357 (step)********** (real)
------------------------------------------------------------------------

 ANCopt (total)                0 d,  0 h,  0 min,  0.365 sec
 optimizer setup                ...        0 min,  0.000 sec (  0.019%)
 model hessian                  ...        0 min,  0.004 sec (  1.118%)
 ANC generation                 ...        0 min,  0.001 sec (  0.199%)
 coordinate transformation      ...        0 min,  0.000 sec (  0.059%)
 single point calculation       ...        0 min,  0.349 sec ( 95.678%)
 optimization log               ...        0 min,  0.004 sec (  0.970%)
 hessian update                 ...        0 min,  0.001 sec (  0.195%)
 rational function              ...        0 min,  0.005 sec (  1.381%)

================
 final structure:
================
16
 xtb: 6.5.0 (746241f)
C           -0.18178136629769        0.82743005504707       -0.95268443378096
C            0.36072525840079       -0.39011170895504       -0.68887472295805
F            3.19384493057853        3.81574507814511       -0.04907865762007
H           -0.14625351215795       -1.33091381618937       -0.79369068387213
S            4.70689999474737        0.35975638447150        0.73092526441550
C            5.80543675737905        1.64935944325449        1.00955923448026
S            0.91645704611813        2.11704568537895       -0.67452548772190
C            5.26767547245828        2.86600115334380        0.73256761150642
C            1.69256595273089       -0.27416210346177       -0.25287867231413
H           -1.17172190800733        1.04803841412151       -1.29700260467095
H            6.79213995981362        1.42970263972571        1.36379169178308
C            2.16659373072045        1.01530013671692       -0.18249154462329
C            3.93878344076063        2.74980028076457        0.28758975625292
F            2.44246036721680       -1.34073788122350        0.06973471089800
C            3.46227021595524        1.46111022774179        0.22268644816526
H            5.77603365958331        3.80633601111847        0.83445209005992
 
 Bond Distances (Angstroems)
 ---------------------------
C1-C2=1.3588         C1-S7=1.7166         C1-H10=1.0711        C2-C1=1.3588         C2-H4=1.0738         C2-C9=1.4062         
F3-C13=1.3433        H4-C2=1.0738         S5-C6=1.7168         S5-C15=1.7379        C6-S5=1.7168         C6-C8=1.3587         
C6-H11=1.0711        S7-C1=1.7166         S7-C12=1.7375        C8-C6=1.3587         C8-C13=1.4062        C8-H16=1.0738        
C9-C2=1.4062         C9-C12=1.3756        C9-F14=1.3431        H10-C1=1.0711        H11-C6=1.0711        C12-S7=1.7375        
C12-C9=1.3756        C12-C15=1.4289       C13-F3=1.3433        C13-C8=1.4062        C13-C15=1.3755       F14-C9=1.3431        
C15-S5=1.7379        C15-C12=1.4289       C15-C13=1.3755       H16-C8=1.0738        
 C  H  Rav=1.0725 sigma=0.0014  Rmin=1.0711  Rmax=1.0738     4
 C  C  Rav=1.3871 sigma=0.0249  Rmin=1.3587  Rmax=1.4289     7
 F  C  Rav=1.3432 sigma=0.0001  Rmin=1.3431  Rmax=1.3433     2
 S  C  Rav=1.7272 sigma=0.0105  Rmin=1.7166  Rmax=1.7379     4
 
 selected bond angles (degree)
 --------------------
S7-C1-C2=112.72                H10-C1-C2=128.02               H10-C1-S7=119.25               H4-C2-C1=125.28                
C9-C2-C1=111.37                C9-C2-H4=123.34                C15-S5-C6= 91.70               C8-C6-S5=112.72                
H11-C6-S5=119.28               H11-C6-C8=128.00               C12-S7-C1= 91.71               C13-C8-C6=111.38               
H16-C8-C6=125.27               H16-C8-C13=123.35              C12-C9-C2=114.80               F14-C9-C2=122.53               
F14-C9-C12=122.66              
 
 selected dihedral angles (degree)
 ---------------------------------
H4-C2-C1-S7=180.00            H4-C2-C1-H10=  0.04           C9-C2-C1-S7=  0.00            C9-C2-C1-H10=180.04           
C8-C6-S5-C15=359.93           H11-C6-S5-C15=179.98          C12-S7-C1-C2=  0.00           C12-S7-C1-H10=179.95          
C13-C8-C6-S5=  0.08           C13-C8-C6-H11=180.02          H16-C8-C6-S5=180.06           H16-C8-C6-H11=  0.00          
C12-C9-C2-C1=  0.00           C12-C9-C2-H4=180.01           F14-C9-C2-C1=180.00           F14-C9-C2-H4=  0.00           
           -------------------------------------------------
          |                Final Singlepoint                |
           -------------------------------------------------

          ...................................................
          :                      SETUP                      :
          :.................................................:
          :  # basis functions                  64          :
          :  # atomic orbitals                  62          :
          :  # shells                           30          :
          :  # electrons                        62          :
          :  max. iterations                   250          :
          :  Hamiltonian                  GFN2-xTB          :
          :  restarted?                      false          :
          :  GBSA solvation                  false          :
          :  PC potential                    false          :
          :  electronic temp.          300.0000000     K    :
          :  accuracy                    1.0000000          :
          :  -> integral cutoff          0.2500000E+02      :
          :  -> integral neglect         0.1000000E-07      :
          :  -> SCF convergence          0.1000000E-05 Eh   :
          :  -> wf. convergence          0.1000000E-03 e    :
          :  Broyden damping             0.4000000          :
          ...................................................

 iter      E             dE          RMSdq      gap      omega  full diag
   1    -35.4909479 -0.354909E+02  0.756E-05    2.66       0.0  T
   2    -35.4909479 -0.103881E-10  0.502E-05    2.66     498.2  T
   3    -35.4909479 -0.128182E-10  0.314E-05    2.66     796.6  T

   *** convergence criteria satisfied after 3 iterations ***

         #    Occupation            Energy/Eh            Energy/eV
      -------------------------------------------------------------
         1        2.0000           -0.8255498             -22.4644
       ...           ...                  ...                  ...
        25        2.0000           -0.4714733             -12.8294
        26        2.0000           -0.4696340             -12.7794
        27        2.0000           -0.4569382             -12.4339
        28        2.0000           -0.4431738             -12.0594
        29        2.0000           -0.4110365             -11.1849
        30        2.0000           -0.4098338             -11.1521
        31        2.0000           -0.3849500             -10.4750 (HOMO)
        32                         -0.2872362              -7.8161 (LUMO)
        33                         -0.2380452              -6.4775
        34                         -0.2246716              -6.1136
        35                         -0.2133046              -5.8043
        36                         -0.1938658              -5.2754
       ...                                ...                  ...
        62                          0.6816774              18.5494
      -------------------------------------------------------------
                  HL-Gap            0.0977138 Eh            2.6589 eV
             Fermi-level           -0.3360931 Eh           -9.1456 eV

 SCC (total)                   0 d,  0 h,  0 min,  0.004 sec
 SCC setup                      ...        0 min,  0.000 sec (  1.681%)
 Dispersion                     ...        0 min,  0.000 sec (  1.244%)
 classical contributions        ...        0 min,  0.000 sec (  0.145%)
 integral evaluation            ...        0 min,  0.001 sec ( 15.661%)
 iterations                     ...        0 min,  0.002 sec ( 48.779%)
 molecular gradient             ...        0 min,  0.001 sec ( 30.414%)
 printout                       ...        0 min,  0.000 sec (  1.733%)

         :::::::::::::::::::::::::::::::::::::::::::::::::::::
         ::                     SUMMARY                     ::
         :::::::::::::::::::::::::::::::::::::::::::::::::::::
         :: total energy             -35.095876568474 Eh    ::
         :: gradient norm              0.000501648008 Eh/a0 ::
         :: HOMO-LUMO gap              2.658928302838 eV    ::
         ::.................................................::
         :: SCC energy               -35.490947924882 Eh    ::
         :: -> isotropic ES            0.021640641761 Eh    ::
         :: -> anisotropic ES          0.000478564197 Eh    ::
         :: -> anisotropic XC          0.002294269700 Eh    ::
         :: -> dispersion             -0.018425582830 Eh    ::
         :: repulsion energy           0.395079926434 Eh    ::
         :: add. restraining           0.000000000000 Eh    ::
         :: total charge               0.000000000000 e     ::
         :::::::::::::::::::::::::::::::::::::::::::::::::::::

           -------------------------------------------------
          |                Property Printout                |
           -------------------------------------------------

    * Orbital Energies and Occupations

         #    Occupation            Energy/Eh            Energy/eV
      -------------------------------------------------------------
         1        2.0000           -0.8255498             -22.4644
       ...           ...                  ...                  ...
        19        2.0000           -0.5119737             -13.9315
        20        2.0000           -0.5072222             -13.8022
        21        2.0000           -0.4965274             -13.5112
        22        2.0000           -0.4836843             -13.1617
        23        2.0000           -0.4834971             -13.1566
        24        2.0000           -0.4800830             -13.0637
        25        2.0000           -0.4714733             -12.8294
        26        2.0000           -0.4696340             -12.7794
        27        2.0000           -0.4569382             -12.4339
        28        2.0000           -0.4431738             -12.0594
        29        2.0000           -0.4110365             -11.1849
        30        2.0000           -0.4098338             -11.1521
        31        2.0000           -0.3849500             -10.4750 (HOMO)
        32                         -0.2872362              -7.8161 (LUMO)
        33                         -0.2380452              -6.4775
        34                         -0.2246716              -6.1136
        35                         -0.2133046              -5.8043
        36                         -0.1938658              -5.2754
        37                         -0.1641383              -4.4664
        38                         -0.1491148              -4.0576
        39                         -0.1172046              -3.1893
        40                         -0.0256281              -0.6974
        41                         -0.0063379              -0.1725
        42                          0.0051935               0.1413
       ...                                ...                  ...
        62                          0.6816774              18.5494
      -------------------------------------------------------------
                  HL-Gap            0.0977138 Eh            2.6589 eV
             Fermi-level           -0.3360931 Eh           -9.1456 eV

     #   Z          covCN         q      C6AA      α(0)
     1   6 C        2.952    -0.029    28.732     8.792
     2   6 C        3.092    -0.062    29.434     8.892
     3   9 F        0.786    -0.213    11.368     3.983
     4   1 H        0.926     0.064     2.152     2.294
     5  16 S        2.342     0.033   139.733    19.895
     6   6 C        2.952    -0.029    28.731     8.792
     7  16 S        2.342     0.033   139.725    19.895
     8   6 C        3.091    -0.062    29.434     8.892
     9   6 C        3.005     0.148    24.778     8.165
    10   1 H        0.927     0.063     2.169     2.303
    11   1 H        0.926     0.063     2.169     2.303
    12   6 C        3.006    -0.003    28.078     8.692
    13   6 C        3.005     0.148    24.778     8.165
    14   9 F        0.786    -0.213    11.366     3.982
    15   6 C        3.006    -0.003    28.078     8.692
    16   1 H        0.926     0.064     2.152     2.294

 Mol. C6AA /au·bohr⁶  :       6096.033679
 Mol. C8AA /au·bohr⁸  :     192663.653101
 Mol. α(0) /au        :        126.032035


Wiberg/Mayer (AO) data.
largest (>0.10) Wiberg bond orders for each atom

 ---------------------------------------------------------------------------
     #   Z sym  total        # sym  WBO       # sym  WBO       # sym  WBO
 ---------------------------------------------------------------------------
     1   6 C    3.939 --     2 C    1.598     7 S    1.208    10 H    0.969
     2   6 C    3.984 --     1 C    1.598     9 C    1.270     4 H    0.962
     3   9 F    1.112 --    13 C    0.960
     4   1 H    0.996 --     2 C    0.962
     5  16 S    2.641 --     6 C    1.208    15 C    1.140
     6   6 C    3.939 --     8 C    1.598     5 S    1.208    11 H    0.969
     7  16 S    2.642 --     1 C    1.208    12 C    1.140
     8   6 C    3.984 --     6 C    1.598    13 C    1.270    16 H    0.962
     9   6 C    3.877 --    12 C    1.449     2 C    1.270    14 F    0.961
    10   1 H    0.996 --     1 C    0.969
    11   1 H    0.996 --     6 C    0.969
    12   6 C    3.953 --     9 C    1.449    15 C    1.158     7 S    1.140
    13   6 C    3.877 --    15 C    1.449     8 C    1.270     3 F    0.960
    14   9 F    1.113 --     9 C    0.961
    15   6 C    3.953 --    13 C    1.449    12 C    1.158     5 S    1.140
    16   1 H    0.996 --     8 C    0.962
 ---------------------------------------------------------------------------

Topologies differ in total number of bonds
Writing topology from bond orders to xtbtopo.mol

molecular dipole:
                 x           y           z       tot (Debye)
 q only:       -0.004       0.000       0.009
   full:       -0.003       0.000       0.007       0.019
molecular quadrupole (traceless):
                xx          xy          yy          xz          yz          zz
 q only:       10.865       2.564     -10.335       4.185       1.517      -0.530
  q+dip:       13.105       7.494     -11.840       4.847       3.222      -1.265
   full:       12.832       6.810     -12.803       4.330       3.162      -0.029

           -------------------------------------------------
          |                Geometry Summary                 |
           -------------------------------------------------

      molecular mass/u    :      202.2440313
   center of mass at/Å    :        2.8140314       1.2380830       0.0218392
  moments of inertia/u·Å² :        0.4050522E+03   0.7945700E+03   0.1199601E+04
rotational constants/cm⁻¹ :        0.4161842E-01   0.2121604E-01   0.1405270E-01

 * 17 selected distances

     #   Z          #   Z                                           value/Å
     1   6 C        2   6 C                                       1.3587926
     2   6 C        4   1 H                                       1.0738355
     5  16 S        6   6 C                                       1.7168275
     1   6 C        7  16 S                                       1.7165690
     6   6 C        8   6 C                                       1.3587233
     2   6 C        9   6 C                                       1.4061781
     1   6 C       10   1 H                                       1.0710768 (min)
     6   6 C       11   1 H                                       1.0711271
     7  16 S       12   6 C                                       1.7374645
     9   6 C       12   6 C                                       1.3756344
     3   9 F       13   6 C                                       1.3433234
     8   6 C       13   6 C                                       1.4062227
     9   6 C       14   9 F                                       1.3431326
     5  16 S       15   6 C                                       1.7379272 (max)
    12   6 C       15   6 C                                       1.4288785
    13   6 C       15   6 C                                       1.3754998
     8   6 C       16   1 H                                       1.0737962

 * 4 distinct bonds (by element types)

   Z      Z             #   av. dist./Å        max./Å        min./Å
   1 H    6 C           4     1.0724589     1.0738355     1.0710768
   6 C    6 C           7     1.3871328     1.4288785     1.3587233
   6 C    9 F           2     1.3432280     1.3433234     1.3431326
   6 C   16 S           4     1.7271970     1.7379272     1.7165690


optimized geometry written to: xtbopt.xyz


           -------------------------------------------------
          | TOTAL ENERGY              -35.095876568474 Eh   |
          | GRADIENT NORM               0.000501648008 Eh/α |
          | HOMO-LUMO GAP               2.658928302838 eV   |
           -------------------------------------------------
########################################################################
[WARNING] Runtime exception occurred
-1- restart_readRestart: Number of electron missmatch in restart file.
########################################################################

------------------------------------------------------------------------
 * finished run on 2022/07/14 at 15:23:24.021     
------------------------------------------------------------------------
 total:
 * wall-time:     0 d,  0 h,  0 min,  0.398 sec
 *  cpu-time:     0 d,  0 h,  0 min,  6.303 sec
 * ratio c/w:    15.852 speedup
 SCF:
 * wall-time:     0 d,  0 h,  0 min,  0.011 sec
 *  cpu-time:     0 d,  0 h,  0 min,  0.170 sec
 * ratio c/w:    15.751 speedup
 ANC optimizer:
 * wall-time:     0 d,  0 h,  0 min,  0.370 sec
 *  cpu-time:     0 d,  0 h,  0 min,  5.905 sec
 * ratio c/w:    15.964 speedup

