16
 energy: -35.095876568474 gnorm: 0.000501648008 xtb: 6.5.0 (746241f)
C           -0.18178136629769        0.82743005504707       -0.95268443378096
C            0.36072525840079       -0.39011170895504       -0.68887472295805
F            3.19384493057853        3.81574507814511       -0.04907865762007
H           -0.14625351215795       -1.33091381618937       -0.79369068387213
S            4.70689999474737        0.35975638447150        0.73092526441550
C            5.80543675737905        1.64935944325449        1.00955923448026
S            0.91645704611813        2.11704568537895       -0.67452548772190
C            5.26767547245828        2.86600115334380        0.73256761150642
C            1.69256595273089       -0.27416210346177       -0.25287867231413
H           -1.17172190800733        1.04803841412151       -1.29700260467095
H            6.79213995981362        1.42970263972571        1.36379169178308
C            2.16659373072045        1.01530013671692       -0.18249154462329
C            3.93878344076063        2.74980028076457        0.28758975625292
F            2.44246036721680       -1.34073788122350        0.06973471089800
C            3.46227021595524        1.46111022774179        0.22268644816526
H            5.77603365958331        3.80633601111847        0.83445209005992
