16
 energy: -33.411236185337 gnorm: 3.938099895807 xtb: 6.5.0 (746241f)
C           -0.09690000000000        0.70470000000000       -0.35980000000000
C            0.70750000000000       -0.18230000000000       -0.97700000000000
F            3.74840000000000        3.00520000000000       -0.93360000000000
H            0.42693000000000       -0.98296000000000       -1.62902000000000
S            3.80220000000000        1.08460000000000        1.56200000000000
C            5.37080000000000        1.76650000000000        1.39240000000000
S            1.05330000000000        1.65960000000000        0.48870000000000
C            5.19700000000000        2.55040000000000        0.31080000000000
C            2.02450000000000        0.19340000000000       -0.55930000000000
H           -1.16297000000000        0.79135000000000       -0.38965000000000
H            6.24775000000000        1.61058000000000        1.98531000000000
C            1.97400000000000        1.08020000000000        0.15120000000000
C            3.83310000000000        2.32810000000000       -0.06390000000000
F            2.63120000000000       -0.56110000000000       -1.09280000000000
C            3.35230000000000        1.57010000000000        0.63450000000000
H            5.91302000000000        3.19133000000000       -0.15976000000000
16
 energy: -34.619588949306 gnorm: 0.970296568374 xtb: 6.5.0 (746241f)
C           -0.11026024732380        0.70965766030896       -0.35708177615298
C            0.69864926997470       -0.17798648411888       -0.97424590192744
F            3.73398478361789        3.05357188976279       -1.00150798551857
H            0.42675057458609       -0.98237626712513       -1.62858861353351
S            3.87197234795127        1.00114690455109        1.71307294511563
C            5.37911858897955        1.76236957855799        1.40354993694187
S            0.90472944557499        1.75700816862428        0.54773488840164
C            5.20212146191309        2.54685595502409        0.31902189436915
C            2.01559811353858        0.16535681715929       -0.58266082514310
H           -1.16525087204461        0.79149576034701       -0.38975836392720
H            6.24948968152865        1.61057725765985        1.98683064413049
C            2.07209714200741        1.05101010271496        0.13740641822736
C            3.85839084823820        2.35057716074119       -0.08165587354209
F            2.68456781888051       -0.61494634677486       -1.13017895915415
C            3.28723640789291        1.59458126442443        0.55740712316121
H            5.91293463468456        3.19080057814294       -0.15926555144830
16
 energy: -34.896899595120 gnorm: 0.508594931278 xtb: 6.5.0 (746241f)
C           -0.13258505895167        0.70931616056445       -0.35802360564263
C            0.66127456049575       -0.18537706891580       -0.98101929877846
F            3.72563109624763        3.12226471355268       -1.09989738191036
H            0.41308281194482       -0.98733255371856       -1.63262089113742
S            3.90704395016629        0.96434399428440        1.78350025237479
C            5.39607588478228        1.76396360486495        1.41705096753487
S            0.83006737398446        1.79436476516205        0.58182424228420
C            5.23613171245104        2.55598289411922        0.33729006153495
C            1.98199562249491        0.10102309073754       -0.62722877177242
H           -1.18178531349751        0.79289226423942       -0.38891634710354
H            6.26108222991212        1.60945698861625        1.99805971070236
C            2.05696409204691        1.07761069823273        0.17614843808138
C            3.91783858918787        2.41270313954594       -0.10177777756718
F            2.75061179640476       -0.69456378900599       -1.18750807620735
C            3.27111711904649        1.57864916058909        0.59851828240468
H            5.92758353328382        3.19440193713162       -0.15531980479788
16
 energy: -35.012338462869 gnorm: 0.278324162615 xtb: 6.5.0 (746241f)
C           -0.17943601658731        0.70164331596366       -0.36885889451695
C            0.61942882363867       -0.19151194809556       -0.98924116811689
F            3.69196033294596        3.14822269339909       -1.16800031627898
H            0.38914280124290       -0.99630431058624       -1.64296091286684
S            3.98176932109844        0.94219233988406        1.84244459955210
C            5.43907767905113        1.77206936142071        1.43682393324706
S            0.72939726188706        1.81102643963257        0.58881574825079
C            5.27469671023070        2.56545966687788        0.35785521955210
C            1.94480700128823        0.06433513892391       -0.65869693953644
H           -1.22713703569774        0.79217345733477       -0.39524158540820
H            6.29883382805495        1.61020095141598        2.02186419322662
C            2.03064134533982        1.08315497681149        0.18346784958893
C            3.97028060758715        2.45092307906069       -0.10720759778060
F            2.81804312287842       -0.72614287438714       -1.20860309583186
C            3.28492042789295        1.58090635163392        0.61834683880945
H            5.95570378914866        3.20135136071021       -0.15072787189030
16
 energy: -35.059752260784 gnorm: 0.142390880006 xtb: 6.5.0 (746241f)
C           -0.22582754422209        0.69241120925058       -0.37925618862389
C            0.57867646361171       -0.20147436841714       -0.99897562349005
F            3.65415679341393        3.16279187824098       -1.21304001820490
H            0.34174667649644       -1.00855101818855       -1.65630555949422
S            4.05170947110512        0.92168356805429        1.88289215221837
C            5.48158837579438        1.78295115339467        1.45554385552366
S            0.64277397184258        1.82145563167714        0.59001955762686
C            5.31375225895568        2.57968842064624        0.37528098415376
C            1.91680003165256        0.03678929953216       -0.68265456817927
H           -1.28171711361810        0.78526296909784       -0.40649190932155
H            6.34561293004502        1.61976853470199        2.04864762388713
C            2.01772745724577        1.08596506083098        0.18415757887235
C            4.01195848213697        2.47659165093107       -0.11691099407018
F            2.87466555901297       -0.74183571967527       -1.21037842405259
C            3.29390653429702        1.58210022671047        0.62091607398762
H            6.00459965223004        3.21410150321255       -0.13336454083311
16
 energy: -35.075878330831 gnorm: 0.090195896903 xtb: 6.5.0 (746241f)
C           -0.27060125321763        0.68020632360487       -0.38754888987376
C            0.53606165658878       -0.21555264867748       -1.00694550019776
F            3.64117673270447        3.17402924316466       -1.22751825853951
H            0.26774342339093       -1.01949714568312       -1.66374185007940
S            4.10998792879395        0.90772764378120        1.89614874664932
C            5.52347143166476        1.80021391966334        1.47313896858909
S            0.58563075106345        1.82067719693320        0.58140283787330
C            5.35255162481096        2.59883464683122        0.39182038520199
C            1.88986314228333        0.01503024227438       -0.70000420365781
H           -1.33500108648162        0.76592436296438       -0.42195546309808
H            6.39497104746707        1.65277767667511        2.07353438632398
C            2.01181476550960        1.07981659978303        0.17267778646141
C            4.04955722174979        2.48652763099348       -0.12845021623920
F            2.89007210095808       -0.75457178994093       -1.20688056702611
C            3.30937718437885        1.58053909338026        0.60578328380065
H            6.06545332833524        3.23701700425240       -0.09138144618811
16
 energy: -35.082669802445 gnorm: 0.064808455297 xtb: 6.5.0 (746241f)
C           -0.30641216691907        0.67039687794862       -0.39001507245216
C            0.49746159616042       -0.22882443117037       -1.00989225254956
F            3.64999707625527        3.17489365525067       -1.23027300995841
H            0.18752478235844       -1.02735126170458       -1.66019743580060
S            4.15661833322819        0.89101233089443        1.88822841956952
C            5.55656687965192        1.81986126339516        1.49037265712263
S            0.55590969920322        1.81689927434563        0.56619084968149
C            5.38291968839428        2.61942639440014        0.40907873401930
C            1.86420371299484       -0.00222422467396       -0.71572104470476
H           -1.37557091967671        0.74509008190698       -0.42947615541418
H            6.43203354249916        1.70098185004917        2.09924867668042
C            2.01560003942459        1.06971855460908        0.15074162055916
C            4.08425983958413        2.48409107617783       -0.14107944915737
F            2.87657695493920       -0.76522653383111       -1.20962540552637
C            3.32781219467307        1.57128561730756        0.57571645561477
H            6.11662874722902        3.26966947509474       -0.03321758768390
16
 energy: -35.086237297424 gnorm: 0.043779564133 xtb: 6.5.0 (746241f)
C           -0.33206071461298        0.66308174241120       -0.38855641440835
C            0.46837060888767       -0.23925964774918       -1.00961868531569
F            3.67119796873573        3.16441629545679       -1.22879723278107
H            0.12170685183659       -1.03273978459777       -1.64992925028107
S            4.19214713480716        0.87389761653648        1.87036430128701
C            5.57906198696871        1.83761632311339        1.50568450453169
S            0.54308828025296        1.81318162339934        0.54986917025274
C            5.40288520253828        2.63739562796730        0.42429384399928
C            1.84130838595776       -0.01233936517893       -0.72852277768209
H           -1.40296830204813        0.72664473334578       -0.42895182297254
H            6.45432631633582        1.74757704833213        2.12236831755131
C            2.02577205749188        1.06060167682663        0.12507000307846
C            4.11299019746606        2.47703612714915       -0.14947434528667
F            2.84996476958205       -0.76857019093339       -1.21675493923157
C            3.34417266673547        1.55971077812080        0.54077393183435
H            6.15016658906493        3.30144939580027        0.02226139542419
16
 energy: -35.088045326611 gnorm: 0.024814041897 xtb: 6.5.0 (746241f)
C           -0.34503453089860        0.65935668919657       -0.38667074652941
C            0.45330636034392       -0.24589364488239       -1.00761773672599
F            3.69345571742760        3.15082427287656       -1.22317410904453
H            0.08663543804348       -1.03777757965367       -1.63688064491433
S            4.21387932343810        0.86114140403856        1.85192478597260
C            5.58959709733609        1.84773277984101        1.51464712331062
S            0.54114912129489        1.81145454804069        0.53637075214598
C            5.41118324161589        2.64901764345648        0.43400028736112
C            1.82468036189528       -0.01426691302306       -0.73538002834843
H           -1.41553353835461        0.71610102022194       -0.42464340431448
H            6.46125813669255        1.77573740865990        2.13636776042956
C            2.03834492105927        1.05589838768807        0.10279377068856
C            4.13108651914526        2.47082063471396       -0.15056331082955
F            2.82344599436141       -0.76599017295193       -1.22128177026992
C            3.35408660767211        1.55092090275678        0.51134674708223
H            6.16058922892733        3.32462261902053        0.05884052398593
16
 energy: -35.088708046762 gnorm: 0.015751279029 xtb: 6.5.0 (746241f)
C           -0.34525432597358        0.66077879362246       -0.38535822742595
C            0.44970612794709       -0.24900325084735       -1.00489903673527
F            3.70765694854330        3.14286493814401       -1.21764575482854
H            0.08126443189917       -1.04411407565837       -1.62584217470514
S            4.22124558152198        0.85360366824748        1.83869725376683
C            5.58935499892729        1.84907637597808        1.51635611697082
S            0.54761919757218        1.81227331378753        0.52742825335878
C            5.41020454126547        2.65479393635191        0.43858033524649
C            1.81681382442018       -0.01325510519237       -0.73711971734009
H           -1.41445945396929        0.71969783337012       -0.41758125800730
H            6.45587292619951        1.78163612718210        2.14249696733879
C            2.04880950444898        1.05482949512191        0.08856074027495
C            4.13760836718427        2.46716102659648       -0.14759843602630
F            2.80624508663845       -0.76630028882745       -1.22275605527771
C            3.35791954135559        1.54466811360147        0.49414096463666
H            6.15152270201938        3.34098909852200        0.07262002875295
16
 energy: -35.088945915528 gnorm: 0.012639207735 xtb: 6.5.0 (746241f)
C           -0.34119301444751        0.66446550272894       -0.38387369840130
C            0.44791909425437       -0.25098262175325       -1.00244892509721
F            3.71557806010250        3.14136325479029       -1.21555239511820
H            0.08401301144681       -1.05110891966350       -1.61852489104105
S            4.22290161939371        0.84802546695808        1.82947343050398
C            5.58586821212790        1.84820805278520        1.51620068580589
S            0.55714778405445        1.81401364757654        0.52082621622712
C            5.40764825063411        2.65933051863777        0.44231694862437
C            1.81317625691966       -0.01482539482193       -0.73814087899384
H           -1.40961587441163        0.73099547113250       -0.40863996726431
H            6.44765908726335        1.77963216577665        2.14795428383104
C            2.05581467675031        1.05403598908781        0.07905964981346
C            4.13974291080543        2.46558689555709       -0.14522837341655
F            2.79598410101240       -0.77337705172731       -1.22507134810039
C            3.36072366990498        1.53855020516337        0.48454797347371
H            6.13876215418911        3.35578681777176        0.07718128915324
16
 energy: -35.089099599111 gnorm: 0.009502754104 xtb: 6.5.0 (746241f)
C           -0.33778844884796        0.66829218266974       -0.38184528485853
C            0.44329798474639       -0.25374543171913       -0.99995665930639
F            3.72328418045365        3.14414215491971       -1.21504517405079
H            0.08400259824996       -1.05910015490580       -1.61203035999593
S            4.22536024872835        0.84169737515234        1.81972225519365
C            5.58303938355238        1.84895180205556        1.51740290936566
S            0.56817021032298        1.81603676889675        0.51307054835553
C            5.40665112419363        2.66567239466075        0.44796121436218
C            1.80882844373012       -0.01981575172060       -0.74022069589662
H           -1.40594001733196        0.74458362670793       -0.39791135987905
H            6.43996352284511        1.77816920358464        2.15605528781413
C            2.06200844640957        1.05219613135167        0.06835312223779
C            4.14266504796086        2.46575965273465       -0.14337365626584
F            2.78556260781901       -0.78667600180823       -1.22953109176034
C            3.36554069489756        1.53100311034548        0.47506430734054
H            6.12748397227032        3.37253293707453        0.08236463734396
16
 energy: -35.089225943927 gnorm: 0.006644220836 xtb: 6.5.0 (746241f)
C           -0.33671273042124        0.67163818389427       -0.37966561426922
C            0.43489339871820       -0.25793773112170       -0.99705610022308
F            3.73223011654443        3.15200624052934       -1.21436622038022
H            0.07761290721315       -1.06806053205423       -1.60453274579445
S            4.23062880779980        0.83404066628057        1.80783640268466
C            5.58229622996650        1.85213857612202        1.52062301854511
S            0.58030977165636        1.81829928014728        0.50298669547287
C            5.40776609273108        2.67447319480074        0.45602415235048
C            1.80239833819037       -0.02846397046976       -0.74349863888042
H           -1.40474639231339        0.75823679698630       -0.38702831227205
H            6.43427488579436        1.77937430313845        2.16651834208734
C            2.06843068833324        1.04895642305737        0.05452377626575
C            4.14761771862086        2.46810364121233       -0.14178550702424
F            2.77265161092143       -0.80656218783834       -1.23545240180588
C            3.37312821450835        1.52182711791165        0.46317206389273
H            6.11935034173644        3.39162999740368        0.09178108935056
16
 energy: -35.089318735420 gnorm: 0.006108035035 xtb: 6.5.0 (746241f)
C           -0.33814519805278        0.67409073775471       -0.37836978092160
C            0.42518445670287       -0.26273241332411       -0.99392572166196
F            3.74020348860010        3.16433826352276       -1.21218168242046
H            0.06536753580670       -1.07588280234915       -1.59623227265713
S            4.23785368551235        0.82665255708375        1.79565527034474
C            5.58400032163910        1.85659912936202        1.52467851801088
S            0.59140156330344        1.82043380966389        0.49240429806656
C            5.40995915256167        2.68366745428407        0.46439890916398
C            1.79540038805634       -0.03903157603181       -0.74664769508759
H           -1.40584508296318        0.76876431235190       -0.38018678992891
H            6.43228889048699        1.78298022014240        2.17573278204466
C            2.07444390927801        1.04479042496463        0.04014194070621
C            4.15312032295398        2.47240224535674       -0.14057881085728
F            2.75934945414015       -0.82931364691186       -1.24025059835068
C            3.38170217490505        1.51299011518751        0.45053604107148
H            6.11584493706918        3.40895116894254        0.10490559247703
16
 energy: -35.089376111649 gnorm: 0.006491239968 xtb: 6.5.0 (746241f)
C           -0.34019833164233        0.67574292443863       -0.37871490770715
C            0.41878874921463       -0.26627619594152       -0.99129054399157
F            3.74388360619163        3.17670658415759       -1.20867665674609
H            0.05301514405597       -1.07998655220499       -1.58926122352449
S            4.24390159386904        0.82197319455028        1.78702200837043
C            5.58671175824977        1.85975461026760        1.52718458548770
S            0.59875953669999        1.82188664876476        0.48494804462396
C            5.41107162534183        2.68989875292373        0.46975414164970
C            1.79094493538798       -0.04791750326093       -0.74774192334728
H           -1.40734971825254        0.77435691297948       -0.38018790104204
H            6.43382177367567        1.78650177919078        2.17952516780345
C            2.07860864059071        1.04093716208522        0.03036342942188
C            4.15616331864144        2.47705348125334       -0.13977301778984
F            2.75015217528882       -0.84744992909507       -1.24142160897266
C            3.38783730410271        1.50729721953097        0.44143619810077
H            6.11601788858465        3.41922091036012        0.11691420766318
16
 energy: -35.089417461371 gnorm: 0.006348027868 xtb: 6.5.0 (746241f)
C           -0.34123527365256        0.67765077658219       -0.38034309746883
C            0.41595545495549       -0.26860683877424       -0.98895937802024
F            3.74393141874549        3.18749519159481       -1.20443429667544
H            0.04265094512258       -1.08149613110742       -1.58324258986578
S            4.24824847509259        0.81896730451343        1.78110295554724
C            5.58916525044407        1.86104248632355        1.52767821570703
S            0.60397496186516        1.82302831637988        0.48008433202099
C            5.41031562557626        2.69388897168133        0.47258146496359
C            1.78916433929195       -0.05523339004590       -0.74687312910450
H           -1.40781088901414        0.77813632120868       -0.38479096227841
H            6.43687992583678        1.78886901887237        2.17881231241731
C            2.08160993334836        1.03729560752129        0.02461153105793
C            4.15643444642077        2.48140671029812       -0.13907498793352
F            2.74434588495550       -0.86152395902211       -1.23954222273940
C            3.39160269049529        1.50372560786883        0.43538360350861
H            6.11689681051639        3.42505400610517        0.12708624886336
16
 energy: -35.089450022883 gnorm: 0.005931777122 xtb: 6.5.0 (746241f)
C           -0.34043255263456        0.68048694432178       -0.38249485008116
C            0.41541518388556       -0.27026596416353       -0.98663386932634
F            3.74213671971720        3.19600205286194       -1.20010128387811
H            0.03477326237709       -1.08218577331990       -1.57742436720885
S            4.25136016925501        0.81586130593490        1.77612940950966
C            5.59057200213789        1.86084350423630        1.52662794534939
S            0.60889772194864        1.82458767209345        0.47618958067586
C            5.40786200869074        2.69720588131005        0.47438435251812
C            1.78917022026049       -0.06175106565706       -0.74495912367063
H           -1.40652924814368        0.78289014039570       -0.39060268306486
H            6.43949012754263        1.78988529389510        2.17592648932783
C            2.08435225261206        1.03371407997790        0.02081271781766
C            4.15479571566672        2.48521361558579       -0.13824902061150
F            2.74009190821948       -0.87347597454546       -1.23607666100197
C            3.39404208066263        1.50068033779217        0.43073339349540
H            6.11613242780205        3.43000794928086        0.13581797014943
16
 energy: -35.089482489347 gnorm: 0.005697126626 xtb: 6.5.0 (746241f)
C           -0.33772059117679        0.68478449850972       -0.38480304770208
C            0.41533638352028       -0.27212549609530       -0.98368511134684
F            3.73987367681133        3.20400370353338       -1.19529487603019
H            0.02766834766804       -1.08370076735998       -1.57021464032028
S            4.25468348845164        0.81071363279591        1.76969629004693
C            5.59098549394387        1.85988183281294        1.52472746501460
S            0.61551060196000        1.82766186117530        0.47081811736586
C            5.40410678871203        2.70164252676551        0.47691928859205
C            1.78972856785999       -0.06931378573748       -0.74271509762556
H           -1.40335608541443        0.79067053482450       -0.39574049907577
H            6.44082513895852        1.78986735917637        2.17272111613078
C            2.08788932611849        1.02961226907898        0.01612282465094
C            4.15228094689429        2.48923433348392       -0.13700573416676
F            2.73501370531257       -0.88723786201336       -1.23178853603340
C            3.39681879616987        1.49649142547630        0.42508025259028
H            6.11248541421028        3.43751393357328        0.14524218790938
16
 energy: -35.089521142718 gnorm: 0.005722498655 xtb: 6.5.0 (746241f)
C           -0.33301606139846        0.69108483320603       -0.38730339878102
C            0.41449856766071       -0.27480312415933       -0.97949098227225
F            3.73738214716453        3.21341619641156       -1.18914879302871
H            0.01978034678282       -1.08720948140331       -1.56001139609390
S            4.25961476649970        0.80173638429303        1.75983768699979
C            5.59062091821243        1.85847412108410        1.52226017508846
S            0.62519760295254        1.83364285555586        0.46169727937920
C            5.39920182023864        2.70838360849550        0.48141075913237
C            1.79011461432365       -0.07946448632955       -0.74043491492513
H           -1.39811720378086        0.80282210266948       -0.39960018226106
H            6.44066557211066        1.78885300669528        2.17001967862217
C            2.09294688271537        1.02447097732285        0.00841073916694
C            4.14940845090753        2.49423749228274       -0.13511072977665
F            2.72754968215082       -0.90606180501840       -1.22638894814822
C            3.40125078159806        1.49002290288183        0.41656194089697
H            6.10503111186183        3.45009441601230        0.15737108600098
16
 energy: -35.089564969849 gnorm: 0.005812195900 xtb: 6.5.0 (746241f)
C           -0.32705351313879        0.69884148017397       -0.38981800379877
C            0.41216567826140       -0.27824798034063       -0.97415114553111
F            3.73457436438858        3.22446446821617       -1.18154213709350
H            0.01128839454828       -1.09311082096966       -1.54691133389772
S            4.26667843992180        0.78861763214745        1.74642325278267
C            5.58980890814020        1.85693457457349        1.51973568093877
S            0.63735162196793        1.84318036776371        0.44807548275826
C            5.39404636451048        2.71700877268422        0.48801883842333
C            1.78981241230031       -0.09156434518035       -0.73863589479187
H           -1.39158112495236        0.81814653402605       -0.40147082958419
H            6.43909930393962        1.78683773653484        2.16864579486749
C            2.09919820243194        1.01878741623866       -0.00274106976210
C            4.14693191196499        2.49994371063656       -0.13268783210350
F            2.71799435037868       -0.92928765644045       -1.21984664479345
C            3.40768540434705        1.48159625592931        0.40508857410657
H            6.09412928098986        3.46755185400663        0.17189726747905
16
 energy: -35.089608207803 gnorm: 0.005804404694 xtb: 6.5.0 (746241f)
C           -0.32160811661874        0.70623011196208       -0.39206733730888
C            0.40860403354514       -0.28168827594250       -0.96860091376902
F            3.73118310685439        3.23578776247949       -1.17332110287474
H            0.00377863178536       -1.10042388698226       -1.53306782737991
S            4.27488745120671        0.77367566679755        1.73178183711207
C            5.58910380487182        1.85553441106640        1.51779456227047
S            0.64919528073790        1.85497180416169        0.43189818011212
C            5.39005781549611        2.72526428505267        0.49534994496324
C            1.78875746741938       -0.10266173209516       -0.73775839674001
H           -1.38564155059917        0.83251402246708       -0.40146605608952
H            6.43697170521295        1.78408663535982        2.16878288051487
C            2.10521833681123        1.01395165662659       -0.01525487919383
C            4.14554587824230        2.50509667412587       -0.13032163072149
F            2.70876029670189       -0.95184200442416       -1.21267816183102
C            3.41495478724847        1.47336112065651        0.39287009971860
H            6.08236107108421        3.48584174868832        0.18613880121698
16
 energy: -35.089729324056 gnorm: 0.002508455500 xtb: 6.5.0 (746241f)
C           -0.32394693646162        0.70688839242073       -0.39553242071877
C            0.40726301544257       -0.28315015519696       -0.96595221589150
F            3.72328138494555        3.24029963695887       -1.16640745985777
H            0.00444509577841       -1.10513698563214       -1.52726551294043
S            4.28653307018512        0.75822087293529        1.71789962842458
C            5.59175169997515        1.85401946353099        1.51686743010000
S            0.64855680326563        1.86719477943922        0.41153122188196
C            5.39052004704928        2.72554704495019        0.49675926132928
C            1.78743677787917       -0.10150791628493       -0.73444136588925
H           -1.38802252876184        0.83191100566568       -0.40557285095838
H            6.43998572681117        1.78270214378113        2.16739201964439
C            2.10401106862074        1.01380521708654       -0.01056869307729
C            4.14526191098993        2.50521810032531       -0.12831806383023
F            2.71108382564206       -0.95184825373037       -1.20261535721473
C            3.41405597287124        1.47623790587799        0.39693197780338
H            6.07991306576738        3.48929874787246        0.18937240119468
16
 energy: -35.089819109916 gnorm: 0.002052074825 xtb: 6.5.0 (746241f)
C           -0.32442083653236        0.71225067882879       -0.40753476073873
C            0.40667485325582       -0.28683846023470       -0.96179775203718
F            3.70836385427652        3.25664561091952       -1.15045236269271
H            0.00581831387876       -1.11555199404191       -1.51480690363779
S            4.29589938445547        0.74413754951229        1.70295718805645
C            5.59793179914618        1.84571501419785        1.50823449533527
S            0.64919534821043        1.87904554386974        0.39075458186686
C            5.38978699398581        2.72809121075799        0.49910060445913
C            1.78625969039137       -0.10475516172286       -0.72641451778072
H           -1.38828082049622        0.83793124406159       -0.42054163382558
H            6.44791239203387        1.77136309298163        2.15617501516211