      -----------------------------------------------------------      
     |                   =====================                   |     
     |                           x T B                           |     
     |                   =====================                   |     
     |                         S. Grimme                         |     
     |          Mulliken Center for Theoretical Chemistry        |     
     |                    University of Bonn                     |     
      -----------------------------------------------------------      

   * xtb version 6.5.0 (746241f) compiled by 'ehlert@majestix' on 2022-05-15

   xtb is free software: you can redistribute it and/or modify it under
   the terms of the GNU Lesser General Public License as published by
   the Free Software Foundation, either version 3 of the License, or
   (at your option) any later version.
   
   xtb is distributed in the hope that it will be useful,
   but WITHOUT ANY WARRANTY; without even the implied warranty of
   MERCHANTABILITY or FITNESS FOR A PARTICULAR PURPOSE.  See the
   GNU Lesser General Public License for more details.
   
   Cite this work as:
   * C. Bannwarth, E. Caldeweyher, S. Ehlert, A. Hansen, P. Pracht,
     J. Seibert, S. Spicher, S. Grimme, WIREs Comput. Mol. Sci., 2020, 11,
     e01493. DOI: 10.1002/wcms.1493
   
   for GFN2-xTB:
   * C. Bannwarth, S. Ehlert and S. Grimme., J. Chem. Theory Comput., 2019,
     15, 1652-1671. DOI: 10.1021/acs.jctc.8b01176
   for GFN1-xTB:
   * S. Grimme, C. Bannwarth, P. Shushkov, J. Chem. Theory Comput., 2017,
     13, 1989-2009. DOI: 10.1021/acs.jctc.7b00118
   for GFN0-xTB:
   * P. Pracht, E. Caldeweyher, S. Ehlert, S. Grimme, ChemRxiv, 2019, preprint.
     DOI: 10.26434/chemrxiv.8326202.v1
   for GFN-FF:
   * S. Spicher and S. Grimme, Angew. Chem. Int. Ed., 2020, 59, 15665-15673.
     DOI: 10.1002/anie.202004239
   
   for ALPB and GBSA implicit solvation:
   * S. Ehlert, M. Stahn, S. Spicher, S. Grimme, J. Chem. Theory Comput.,
     2021, 17, 4250-4261. DOI: 10.1021/acs.jctc.1c00471
   
   for DFT-D4:
   * E. Caldeweyher, C. Bannwarth and S. Grimme, J. Chem. Phys., 2017,
     147, 034112. DOI: 10.1063/1.4993215
   * E. Caldeweyher, S. Ehlert, A. Hansen, H. Neugebauer, S. Spicher,
     C. Bannwarth and S. Grimme, J. Chem. Phys., 2019, 150, 154122.
     DOI: 10.1063/1.5090222
   * E. Caldeweyher, J.-M. Mewes, S. Ehlert and S. Grimme, Phys. Chem. Chem. Phys.
     2020, 22, 8499-8512. DOI: 10.1039/D0CP00502A
   
   for sTDA-xTB:
   * S. Grimme and C. Bannwarth, J. Chem. Phys., 2016, 145, 054103.
     DOI: 10.1063/1.4959605
   
   in the mass-spec context:
   * V. Asgeirsson, C. Bauer and S. Grimme, Chem. Sci., 2017, 8, 4879.
     DOI: 10.1039/c7sc00601b
   * J. Koopman and S. Grimme, ACS Omega 2019, 4, 12, 15120-15133.
     DOI: 10.1021/acsomega.9b02011
   
   for metadynamics refer to:
   * S. Grimme, J. Chem. Theory Comput., 2019, 155, 2847-2862
     DOI: 10.1021/acs.jctc.9b00143
   
   for SPH calculations refer to:
   * S. Spicher and S. Grimme, J. Chem. Theory Comput., 2021, 17, 1701-1714
     DOI: 10.1021/acs.jctc.0c01306
   
   with help from (in alphabetical order)
   P. Atkinson, C. Bannwarth, F. Bohle, G. Brandenburg, E. Caldeweyher
   M. Checinski, S. Dohm, S. Ehlert, S. Ehrlich, I. Gerasimov, C. Hölzer
   A. Katbashev, J. Koopman, C. Lavigne, S. Lehtola, F. März, M. Müller,
   F. Musil, H. Neugebauer, J. Pisarek, C. Plett, P. Pracht, F. Pultar,
   J. Seibert, P. Shushkov, S. Spicher, M. Stahn, M. Steiner, T. Strunk,
   J. Stückrath, T. Rose, and J. Unsleber
   
 * started run on 2022/07/14 at 15:23:24.946     

           -------------------------------------------------
          |                Calculation Setup                |
           -------------------------------------------------

          program call               : xtb -c 0 -u 0 e5.xyz --opt normal
          coordinate file            : e5.xyz
          omp threads                :                    16

   ID    Z sym.   atoms
    1    6 C      1, 2, 6, 8, 9, 12, 13, 15
    2    9 F      3, 14
    3    1 H      4, 10, 11, 16
    4   16 S      5, 7

           -------------------------------------------------
          |                 G F N 2 - x T B                 |
           -------------------------------------------------

        Reference                      10.1021/acs.jctc.8b01176
      * Hamiltonian:
        H0-scaling (s, p, d)           1.850000    2.230000    2.230000
        zeta-weighting                 0.500000
      * Dispersion:
        s8                             2.700000
        a1                             0.520000
        a2                             5.000000
        s9                             5.000000
      * Repulsion:
        kExp                           1.500000    1.000000
        rExp                           1.000000
      * Coulomb:
        alpha                          2.000000
        third order                    shell-resolved
        anisotropic                    true
        a3                             3.000000
        a5                             4.000000
        cn-shift                       1.200000
        cn-exp                         4.000000
        max-rad                        5.000000

q/qsh data taken from xtbrestart
CAMM data taken from xtbrestart

          ...................................................
          :                      SETUP                      :
          :.................................................:
          :  # basis functions                  64          :
          :  # atomic orbitals                  62          :
          :  # shells                           30          :
          :  # electrons                        62          :
          :  max. iterations                   250          :
          :  Hamiltonian                  GFN2-xTB          :
          :  restarted?                       true          :
          :  GBSA solvation                  false          :
          :  PC potential                    false          :
          :  electronic temp.          300.0000000     K    :
          :  accuracy                    1.0000000          :
          :  -> integral cutoff          0.2500000E+02      :
          :  -> integral neglect         0.1000000E-07      :
          :  -> SCF convergence          0.1000000E-05 Eh   :
          :  -> wf. convergence          0.1000000E-03 e    :
          :  Broyden damping             0.4000000          :
          ...................................................

 iter      E             dE          RMSdq      gap      omega  full diag
   1    -35.1894903 -0.351895E+02  0.536E+00    3.41       0.0  T
   2    -35.2151508 -0.256605E-01  0.423E+00    4.16       1.0  T
   3    -35.2332825 -0.181317E-01  0.194E+00    3.69       1.0  T
   4    -35.2559285 -0.226460E-01  0.267E-01    3.95       1.0  T
   5    -35.2560231 -0.945643E-04  0.150E-01    3.95       1.0  T
   6    -35.2561830 -0.159927E-03  0.452E-02    3.94       1.0  T
   7    -35.2561854 -0.234783E-05  0.181E-02    3.94       1.4  T
   8    -35.2561858 -0.390167E-06  0.541E-03    3.94       4.6  T
   9    -35.2561858 -0.570333E-07  0.163E-03    3.94      15.3  T
  10    -35.2561858 -0.622158E-09  0.673E-04    3.94      37.1  T
  11    -35.2561858 -0.455870E-08  0.231E-04    3.94     108.4  T

   *** convergence criteria satisfied after 11 iterations ***

         #    Occupation            Energy/Eh            Energy/eV
      -------------------------------------------------------------
         1        2.0000           -0.9027550             -24.5652
       ...           ...                  ...                  ...
        25        2.0000           -0.4391872             -11.9509
        26        2.0000           -0.4350026             -11.8370
        27        2.0000           -0.4294254             -11.6853
        28        2.0000           -0.4287263             -11.6662
        29        2.0000           -0.4156712             -11.3110
        30        2.0000           -0.3659800              -9.9588
        31        2.0000           -0.3644289              -9.9166 (HOMO)
        32                         -0.2197143              -5.9787 (LUMO)
        33                         -0.2171566              -5.9091
        34                         -0.2080284              -5.6607
        35                         -0.1794285              -4.8825
        36                         -0.1567873              -4.2664
       ...                                ...                  ...
        62                          6.7236014             182.9585
      -------------------------------------------------------------
                  HL-Gap            0.1447145 Eh            3.9379 eV
             Fermi-level           -0.2920716 Eh           -7.9477 eV

 SCC (total)                   0 d,  0 h,  0 min,  0.012 sec
 SCC setup                      ...        0 min,  0.000 sec (  0.724%)
 Dispersion                     ...        0 min,  0.000 sec (  0.543%)
 classical contributions        ...        0 min,  0.000 sec (  0.065%)
 integral evaluation            ...        0 min,  0.001 sec (  6.030%)
 iterations                     ...        0 min,  0.010 sec ( 79.222%)
 molecular gradient             ...        0 min,  0.002 sec ( 12.547%)
 printout                       ...        0 min,  0.000 sec (  0.740%)

         :::::::::::::::::::::::::::::::::::::::::::::::::::::
         ::                     SUMMARY                     ::
         :::::::::::::::::::::::::::::::::::::::::::::::::::::
         :: total energy             -33.318542987727 Eh    ::
         :: gradient norm              4.096495128185 Eh/a0 ::
         :: HOMO-LUMO gap              3.937882440199 eV    ::
         ::.................................................::
         :: SCC energy               -35.256185833889 Eh    ::
         :: -> isotropic ES            0.017290176360 Eh    ::
         :: -> anisotropic ES          0.009883455812 Eh    ::
         :: -> anisotropic XC         -0.020806936643 Eh    ::
         :: -> dispersion             -0.017487174784 Eh    ::
         :: repulsion energy           1.937672973522 Eh    ::
         :: add. restraining           0.000000000000 Eh    ::
         :: total charge               0.000000000000 e     ::
         :::::::::::::::::::::::::::::::::::::::::::::::::::::

      ----------------------------------------------------------- 
     |                   =====================                   |
     |                        A N C O P T                        |
     |                   =====================                   |
     |               Approximate Normal Coordinate               |
     |                Rational Function Optimizer                |
      ----------------------------------------------------------- 

          ...................................................
          :                      SETUP                      :
          :.................................................:
          :   optimization level            normal          :
          :   max. optcycles                   200          :
          :   ANC micro-cycles                  20          :
          :   degrees of freedom                42          :
          :.................................................:
          :   RF solver                   davidson          :
          :   write xtbopt.log                true          :
          :   linear?                        false          :
          :   energy convergence         0.5000000E-05 Eh   :
          :   grad. convergence          0.1000000E-02 Eh/α :
          :   maximium RF displ.         1.0000000          :
          :   Hlow (freq-cutoff)         0.1000000E-01      :
          :   Hmax (freq-cutoff)         5.0000000          :
          :   S6 in model hess.         20.0000000          :
          ...................................................

generating ANC from model Hessian ...
Using Lindh-Hessian (1995)
 Shifting diagonal of input Hessian by   4.775393085187495E-004
 Lowest  eigenvalues of input Hessian
    0.000000    0.000000    0.000000    0.000000    0.000000    0.000000
    0.010000    0.017851    0.019549    0.039543    0.058236    0.063367
    0.074329    0.100796    0.109846    0.125223    0.129515    0.132945
 Highest eigenvalues
    3.627754    3.647103    4.901474    5.407941    6.734192    7.045072
 

........................................................................
.............................. CYCLE    1 ..............................
........................................................................
   1    -35.2561858 -0.352562E+02  0.458E-05    3.94       0.0  T
   2    -35.2561858 -0.493117E-11  0.230E-05    3.94    1086.5  T
   3    -35.2561858 -0.476064E-12  0.163E-05    3.94    1537.9  T
     SCC iter.                  ...        0 min,  0.004 sec
     gradient                   ...        0 min,  0.001 sec
 * total energy  :   -33.3185430 Eh     change       -0.7717205E-10 Eh
   gradient norm :     4.0964965 Eh/α   predicted     0.0000000E+00 (-100.00%)
   displ. norm   :     0.6317246 α      lambda       -0.2488797E+01
   maximum displ.:     0.5034125 α      in ANC's #40, #26, #31, ...

........................................................................
.............................. CYCLE    2 ..............................
........................................................................
   1    -35.4340362 -0.354340E+02  0.300E+00    4.19       0.0  T
   2    -35.4453938 -0.113576E-01  0.177E+00    3.88       1.0  T
   3    -35.4484678 -0.307401E-02  0.956E-01    4.07       1.0  T
   4    -35.4536093 -0.514153E-02  0.276E-01    3.95       1.0  T
   5    -35.4539257 -0.316358E-03  0.135E-01    3.97       1.0  T
   6    -35.4540273 -0.101608E-03  0.178E-02    3.98       1.4  T
   7    -35.4540286 -0.126602E-05  0.837E-03    3.97       3.0  T
   8    -35.4540286 -0.724207E-07  0.468E-03    3.97       5.3  T
   9    -35.4540287 -0.349393E-07  0.103E-03    3.97      24.2  T
  10    -35.4540287 -0.334065E-08  0.590E-04    3.97      42.3  T
  11    -35.4540287 -0.204294E-08  0.136E-04    3.97     183.5  T
     SCC iter.                  ...        0 min,  0.006 sec
     gradient                   ...        0 min,  0.002 sec
 * total energy  :   -34.6091737 Eh     change       -0.1290631E+01 Eh
   gradient norm :     0.9784819 Eh/α   predicted    -0.1741008E+01 (  34.90%)
   displ. norm   :     0.4686469 α      lambda       -0.3793632E+00
   maximum displ.:     0.2982381 α      in ANC's #26, #24, #28, ...

........................................................................
.............................. CYCLE    3 ..............................
........................................................................
   1    -35.5096212 -0.355096E+02  0.125E+00    3.60       0.0  T
   2    -35.5128097 -0.318849E-02  0.842E-01    3.47       1.0  T
   3    -35.5130348 -0.225060E-03  0.352E-01    3.52       1.0  T
   4    -35.5136164 -0.581591E-03  0.171E-01    3.48       1.0  T
   5    -35.5137778 -0.161434E-03  0.672E-02    3.48       1.0  T
   6    -35.5138019 -0.241238E-04  0.147E-02    3.49       1.7  T
   7    -35.5138021 -0.172676E-06  0.582E-03    3.48       4.3  T
   8    -35.5138021 -0.774989E-08  0.182E-03    3.48      13.8  T
   9    -35.5138021 -0.153502E-07  0.861E-04    3.48      29.0  T
  10    -35.5138021 -0.384159E-08  0.207E-04    3.48     120.6  T
     SCC iter.                  ...        0 min,  0.006 sec
     gradient                   ...        0 min,  0.001 sec
 * total energy  :   -34.8846894 Eh     change       -0.2755157E+00 Eh
   gradient norm :     0.5366134 Eh/α   predicted    -0.2313413E+00 ( -16.03%)
   displ. norm   :     0.4464354 α      lambda       -0.1836623E+00
   maximum displ.:     0.2649398 α      in ANC's #26, #24, #28, ...

........................................................................
.............................. CYCLE    4 ..............................
........................................................................
   1    -35.5278417 -0.355278E+02  0.106E+00    3.16       0.0  T
   2    -35.5290430 -0.120124E-02  0.743E-01    3.11       1.0  T
   3    -35.5283109  0.732050E-03  0.340E-01    3.12       1.0  T
   4    -35.5298503 -0.153937E-02  0.115E-01    3.10       1.0  T
   5    -35.5299140 -0.637647E-04  0.492E-02    3.10       1.0  T
   6    -35.5299253 -0.112921E-04  0.106E-02    3.11       2.4  T
   7    -35.5299254 -0.233395E-07  0.478E-03    3.11       5.2  T
   8    -35.5299254 -0.376157E-07  0.241E-03    3.11      10.4  T
   9    -35.5299254 -0.361957E-07  0.615E-04    3.10      40.7  T
  10    -35.5299254 -0.255575E-09  0.241E-04    3.11     103.5  T
     SCC iter.                  ...        0 min,  0.008 sec
     gradient                   ...        0 min,  0.001 sec
 * total energy  :   -35.0175889 Eh     change       -0.1328996E+00 Eh
   gradient norm :     0.2777201 Eh/α   predicted    -0.1101335E+00 ( -17.13%)
   displ. norm   :     0.3994508 α      lambda       -0.7539920E-01
   maximum displ.:     0.1993763 α      in ANC's #26, #24, #15, ...

........................................................................
.............................. CYCLE    5 ..............................
........................................................................
   1    -35.5079787 -0.355080E+02  0.782E-01    2.82       0.0  T
   2    -35.5083646 -0.385859E-03  0.532E-01    2.80       1.0  T
   3    -35.5075039  0.860741E-03  0.283E-01    2.80       1.0  T
   4    -35.5087574 -0.125351E-02  0.684E-02    2.80       1.0  T
   5    -35.5087812 -0.238409E-04  0.328E-02    2.80       1.0  T
   6    -35.5087869 -0.569976E-05  0.644E-03    2.80       3.9  T
   7    -35.5087871 -0.151962E-06  0.356E-03    2.80       7.0  T
   8    -35.5087871 -0.489475E-07  0.108E-03    2.80      23.0  T
   9    -35.5087871 -0.181565E-08  0.296E-04    2.80      84.4  T
  10    -35.5087871 -0.214349E-09  0.180E-04    2.80     139.2  T
     SCC iter.                  ...        0 min,  0.006 sec
     gradient                   ...        0 min,  0.001 sec
 * total energy  :   -35.0692741 Eh     change       -0.5168517E-01 Eh
   gradient norm :     0.1392136 Eh/α   predicted    -0.4371498E-01 ( -15.42%)
   displ. norm   :     0.3300271 α      lambda       -0.2282834E-01
   maximum displ.:     0.1527109 α      in ANC's #6, #8, #15, ...

........................................................................
.............................. CYCLE    6 ..............................
........................................................................
   1    -35.4858124 -0.354858E+02  0.483E-01    2.65       0.0  T
   2    -35.4858752 -0.627232E-04  0.320E-01    2.65       1.0  T
   3    -35.4853460  0.529145E-03  0.196E-01    2.65       1.0  T
   4    -35.4859965 -0.650527E-03  0.307E-02    2.65       1.0  T
   5    -35.4860005 -0.394006E-05  0.159E-02    2.65       1.6  T
   6    -35.4860018 -0.127940E-05  0.309E-03    2.65       8.1  T
   7    -35.4860018 -0.721158E-07  0.130E-03    2.65      19.3  T
   8    -35.4860018 -0.401889E-08  0.848E-04    2.65      29.5  T
   9    -35.4860018 -0.270409E-08  0.162E-04    2.65     153.9  T
     SCC iter.                  ...        0 min,  0.005 sec
     gradient                   ...        0 min,  0.001 sec
 * total energy  :   -35.0847415 Eh     change       -0.1546735E-01 Eh
   gradient norm :     0.0877655 Eh/α   predicted    -0.1265738E-01 ( -18.17%)
   displ. norm   :     0.2593866 α      lambda       -0.7592421E-02
   maximum displ.:     0.1154681 α      in ANC's #6, #8, #12, ...

........................................................................
.............................. CYCLE    7 ..............................
........................................................................
   1    -35.4750029 -0.354750E+02  0.301E-01    2.60       0.0  T
   2    -35.4750172 -0.142739E-04  0.192E-01    2.60       1.0  T
   3    -35.4748282  0.188982E-03  0.119E-01    2.61       1.0  T
   4    -35.4750539 -0.225679E-03  0.155E-02    2.61       1.6  T
   5    -35.4750546 -0.710229E-06  0.561E-03    2.61       4.5  T
   6    -35.4750547 -0.411849E-07  0.250E-03    2.61      10.0  T
   7    -35.4750547 -0.557884E-07  0.114E-03    2.61      21.8  T
   8    -35.4750547 -0.233998E-08  0.417E-04    2.61      59.9  T
   9    -35.4750547 -0.158174E-09  0.253E-04    2.61      98.8  T
     SCC iter.                  ...        0 min,  0.005 sec
     gradient                   ...        0 min,  0.001 sec
 * total energy  :   -35.0900501 Eh     change       -0.5308630E-02 Eh
   gradient norm :     0.0657106 Eh/α   predicted    -0.4051627E-02 ( -23.68%)
   displ. norm   :     0.2121959 α      lambda       -0.4075855E-02
   maximum displ.:     0.0983316 α      in ANC's #1, #12, #8, ...

........................................................................
.............................. CYCLE    8 ..............................
........................................................................
   1    -35.4737749 -0.354738E+02  0.217E-01    2.60       0.0  T
   2    -35.4738138 -0.388338E-04  0.135E-01    2.61       1.0  T
   3    -35.4737876  0.261227E-04  0.784E-02    2.61       1.0  T
   4    -35.4738390 -0.513523E-04  0.257E-02    2.61       1.0  T
   5    -35.4738450 -0.604144E-05  0.886E-03    2.61       2.8  T
   6    -35.4738459 -0.865582E-06  0.307E-03    2.61       8.1  T
   7    -35.4738459 -0.390136E-07  0.157E-03    2.61      15.9  T
   8    -35.4738459 -0.836103E-08  0.633E-04    2.61      39.5  T
   9    -35.4738459 -0.860489E-09  0.192E-04    2.61     130.3  T
     SCC iter.                  ...        0 min,  0.005 sec
     gradient                   ...        0 min,  0.001 sec
 * total energy  :   -35.0929864 Eh     change       -0.2936341E-02 Eh
   gradient norm :     0.0455663 Eh/α   predicted    -0.2129696E-02 ( -27.47%)
   displ. norm   :     0.1623527 α      lambda       -0.2754438E-02
   maximum displ.:     0.0797880 α      in ANC's #1, #12, #8, ...

........................................................................
.............................. CYCLE    9 ..............................
........................................................................
   1    -35.4805264 -0.354805E+02  0.165E-01    2.64       0.0  T
   2    -35.4806076 -0.811752E-04  0.105E-01    2.64       1.0  T
   3    -35.4806383 -0.307133E-04  0.575E-02    2.65       1.0  T
   4    -35.4806425 -0.416767E-05  0.276E-02    2.65       1.0  T
   5    -35.4806490 -0.649482E-05  0.101E-02    2.65       2.5  T
   6    -35.4806499 -0.970496E-06  0.360E-03    2.65       6.9  T
   7    -35.4806500 -0.986387E-07  0.156E-03    2.65      16.0  T
   8    -35.4806500 -0.586911E-08  0.539E-04    2.65      46.4  T
   9    -35.4806500 -0.527145E-09  0.164E-04    2.65     152.6  T
     SCC iter.                  ...        0 min,  0.005 sec
     gradient                   ...        0 min,  0.001 sec
 * total energy  :   -35.0948143 Eh     change       -0.1827865E-02 Eh
   gradient norm :     0.0213255 Eh/α   predicted    -0.1413523E-02 ( -22.67%)
   displ. norm   :     0.0774766 α      lambda       -0.8804329E-03
   maximum displ.:     0.0378425 α      in ANC's #1, #6, #17, ...

........................................................................
.............................. CYCLE   10 ..............................
........................................................................
   1    -35.4882258 -0.354882E+02  0.890E-02    2.67       0.0  T
   2    -35.4882593 -0.334748E-04  0.579E-02    2.67       1.0  T
   3    -35.4882722 -0.129849E-04  0.307E-02    2.67       1.0  T
   4    -35.4882720  0.211841E-06  0.143E-02    2.67       1.8  T
   5    -35.4882739 -0.189369E-05  0.610E-03    2.67       4.1  T
   6    -35.4882742 -0.269719E-06  0.212E-03    2.67      11.8  T
   7    -35.4882742 -0.447860E-07  0.692E-04    2.67      36.1  T
   8    -35.4882742 -0.162265E-08  0.198E-04    2.67     126.5  T
     SCC iter.                  ...        0 min,  0.005 sec
     gradient                   ...        0 min,  0.001 sec
 * total energy  :   -35.0953603 Eh     change       -0.5460193E-03 Eh
   gradient norm :     0.0094923 Eh/α   predicted    -0.4428609E-03 ( -18.89%)
   displ. norm   :     0.0505393 α      lambda       -0.2006891E-03
   maximum displ.:     0.0343933 α      in ANC's #6, #1, #12, ...

........................................................................
.............................. CYCLE   11 ..............................
........................................................................
   1    -35.4911237 -0.354911E+02  0.591E-02    2.68       0.0  T
   2    -35.4911261 -0.245219E-05  0.347E-02    2.68       1.0  T
   3    -35.4911247  0.137135E-05  0.167E-02    2.68       1.5  T
   4    -35.4911270 -0.226221E-05  0.469E-03    2.68       5.3  T
   5    -35.4911272 -0.174031E-06  0.229E-03    2.68      10.9  T
   6    -35.4911272 -0.429366E-07  0.721E-04    2.68      34.7  T
   7    -35.4911272 -0.475725E-08  0.322E-04    2.68      77.7  T
     SCC iter.                  ...        0 min,  0.004 sec
     gradient                   ...        0 min,  0.001 sec
 * total energy  :   -35.0954991 Eh     change       -0.1387347E-03 Eh
   gradient norm :     0.0073594 Eh/α   predicted    -0.1005996E-03 ( -27.49%)
   displ. norm   :     0.0517113 α      lambda       -0.1061613E-03
   maximum displ.:     0.0318332 α      in ANC's #1, #6, #12, ...

........................................................................
.............................. CYCLE   12 ..............................
........................................................................
   1    -35.4916999 -0.354917E+02  0.555E-02    2.68       0.0  T
   2    -35.4917001 -0.243318E-06  0.312E-02    2.68       1.0  T
   3    -35.4916998  0.303264E-06  0.646E-03    2.68       3.9  T
   4    -35.4917002 -0.341677E-06  0.334E-03    2.68       7.5  T
   5    -35.4917003 -0.642077E-07  0.124E-03    2.68      20.2  T
   6    -35.4917003 -0.140369E-07  0.516E-04    2.68      48.4  T
   7    -35.4917003 -0.365247E-09  0.262E-04    2.68      95.6  T
     SCC iter.                  ...        0 min,  0.004 sec
     gradient                   ...        0 min,  0.001 sec
 * total energy  :   -35.0955698 Eh     change       -0.7072908E-04 Eh
   gradient norm :     0.0054800 Eh/α   predicted    -0.5322287E-04 ( -24.75%)
   displ. norm   :     0.0399013 α      lambda       -0.4838147E-04
   maximum displ.:     0.0306685 α      in ANC's #1, #6, #2, ...

........................................................................
.............................. CYCLE   13 ..............................
........................................................................
   1    -35.4911170 -0.354911E+02  0.344E-02    2.67       0.0  T
   2    -35.4911172 -0.207814E-06  0.191E-02    2.67       1.3  T
   3    -35.4911171  0.967489E-07  0.491E-03    2.67       5.1  T
   4    -35.4911173 -0.157656E-06  0.187E-03    2.67      13.3  T
   5    -35.4911173  0.711071E-08  0.100E-03    2.67      25.0  T
   6    -35.4911173 -0.136005E-07  0.368E-04    2.67      67.8  T
   7    -35.4911173 -0.237179E-10  0.120E-04    2.67     209.0  T
     SCC iter.                  ...        0 min,  0.004 sec
     gradient                   ...        0 min,  0.001 sec
 * total energy  :   -35.0956051 Eh     change       -0.3533003E-04 Eh
   gradient norm :     0.0043587 Eh/α   predicted    -0.2422902E-04 ( -31.42%)
   displ. norm   :     0.0461333 α      lambda       -0.4464654E-04
   maximum displ.:     0.0353516 α      in ANC's #1, #2, #6, ...

........................................................................
.............................. CYCLE   14 ..............................
........................................................................
   1    -35.4902435 -0.354902E+02  0.320E-02    2.67       0.0  T
   2    -35.4902438 -0.286922E-06  0.180E-02    2.67       1.4  T
   3    -35.4902434  0.456440E-06  0.782E-03    2.67       3.2  T
   4    -35.4902439 -0.562595E-06  0.237E-03    2.67      10.5  T
   5    -35.4902440 -0.301655E-07  0.120E-03    2.67      20.8  T
   6    -35.4902440 -0.106796E-07  0.359E-04    2.67      69.7  T
   7    -35.4902440 -0.464695E-10  0.209E-04    2.67     119.5  T
     SCC iter.                  ...        0 min,  0.004 sec
     gradient                   ...        0 min,  0.001 sec
 * total energy  :   -35.0956370 Eh     change       -0.3190621E-04 Eh
   gradient norm :     0.0039404 Eh/α   predicted    -0.2237105E-04 ( -29.88%)
   displ. norm   :     0.0463228 α      lambda       -0.3683252E-04
   maximum displ.:     0.0294886 α      in ANC's #1, #2, #12, ...

........................................................................
.............................. CYCLE   15 ..............................
........................................................................
   1    -35.4897093 -0.354897E+02  0.291E-02    2.67       0.0  T
   2    -35.4897095 -0.150334E-06  0.170E-02    2.67       1.5  T
   3    -35.4897084  0.103316E-05  0.102E-02    2.67       2.5  T
   4    -35.4897097 -0.126401E-05  0.184E-03    2.67      13.6  T
   5    -35.4897097 -0.154026E-07  0.909E-04    2.67      27.5  T
   6    -35.4897097 -0.523411E-08  0.282E-04    2.67      88.6  T
     SCC iter.                  ...        0 min,  0.004 sec
     gradient                   ...        0 min,  0.001 sec
 * total energy  :   -35.0956638 Eh     change       -0.2680953E-04 Eh
   gradient norm :     0.0037828 Eh/α   predicted    -0.1845449E-04 ( -31.16%)
   displ. norm   :     0.0487696 α      lambda       -0.3412960E-04
   maximum displ.:     0.0343352 α      in ANC's #2, #1, #12, ...

........................................................................
.............................. CYCLE   16 ..............................
........................................................................
   1    -35.4897548 -0.354898E+02  0.316E-02    2.67       0.0  T
   2    -35.4897549 -0.133688E-06  0.187E-02    2.67       1.3  T
   3    -35.4897532  0.165873E-05  0.122E-02    2.67       2.0  T
   4    -35.4897553 -0.205621E-05  0.171E-03    2.67      14.6  T
   5    -35.4897553 -0.425863E-08  0.652E-04    2.67      38.4  T
   6    -35.4897553 -0.146888E-08  0.300E-04    2.67      83.4  T
     SCC iter.                  ...        0 min,  0.004 sec
     gradient                   ...        0 min,  0.001 sec
 * total energy  :   -35.0956879 Eh     change       -0.2410713E-04 Eh
   gradient norm :     0.0032519 Eh/α   predicted    -0.1710433E-04 ( -29.05%)
   displ. norm   :     0.0420318 α      lambda       -0.2350657E-04
   maximum displ.:     0.0337634 α      in ANC's #2, #12, #5, ...

........................................................................
.............................. CYCLE   17 ..............................
........................................................................
   1    -35.4903180 -0.354903E+02  0.278E-02    2.67       0.0  T
   2    -35.4903182 -0.254692E-06  0.162E-02    2.67       1.5  T
   3    -35.4903172  0.106160E-05  0.973E-03    2.67       2.6  T
   4    -35.4903185 -0.131910E-05  0.207E-03    2.67      12.1  T
   5    -35.4903185 -0.211002E-07  0.716E-04    2.67      34.9  T
   6    -35.4903185 -0.124009E-08  0.250E-04    2.67     100.1  T
     SCC iter.                  ...        0 min,  0.004 sec
     gradient                   ...        0 min,  0.001 sec
 * total energy  :   -35.0957042 Eh     change       -0.1630061E-04 Eh
   gradient norm :     0.0027035 Eh/α   predicted    -0.1177300E-04 ( -27.78%)
   displ. norm   :     0.0334906 α      lambda       -0.1412357E-04
   maximum displ.:     0.0277200 α      in ANC's #2, #5, #3, ...

........................................................................
.............................. CYCLE   18 ..............................
........................................................................
   1    -35.4909160 -0.354909E+02  0.204E-02    2.67       0.0  T
   2    -35.4909162 -0.256780E-06  0.115E-02    2.67       2.2  T
   3    -35.4909160  0.256599E-06  0.534E-03    2.67       4.7  T
   4    -35.4909163 -0.298682E-06  0.213E-03    2.67      11.7  T
   5    -35.4909163 -0.447893E-07  0.642E-04    2.67      38.9  T
   6    -35.4909163 -0.136455E-08  0.218E-04    2.67     114.4  T
     SCC iter.                  ...        0 min,  0.004 sec
     gradient                   ...        0 min,  0.001 sec
 * total energy  :   -35.0957145 Eh     change       -0.1024073E-04 Eh
   gradient norm :     0.0025846 Eh/α   predicted    -0.7070037E-05 ( -30.96%)
   displ. norm   :     0.0371551 α      lambda       -0.1333527E-04
   maximum displ.:     0.0308429 α      in ANC's #2, #5, #3, ...

........................................................................
.............................. CYCLE   19 ..............................
........................................................................
   1    -35.4913801 -0.354914E+02  0.205E-02    2.67       0.0  T
   2    -35.4913804 -0.265174E-06  0.113E-02    2.67       2.2  T
   3    -35.4913804  0.401895E-07  0.364E-03    2.67       6.9  T
   4    -35.4913804 -0.495659E-07  0.161E-03    2.67      15.6  T
   5    -35.4913804 -0.251893E-07  0.740E-04    2.67      33.8  T
   6    -35.4913804 -0.366642E-08  0.224E-04    2.67     111.4  T
     SCC iter.                  ...        0 min,  0.004 sec
     gradient                   ...        0 min,  0.001 sec
 * total energy  :   -35.0957247 Eh     change       -0.1021360E-04 Eh
   gradient norm :     0.0027783 Eh/α   predicted    -0.6677257E-05 ( -34.62%)
   displ. norm   :     0.0581428 α      lambda       -0.1962157E-04
   maximum displ.:     0.0485084 α      in ANC's #2, #5, #3, ...

........................................................................
.............................. CYCLE   20 ..............................
........................................................................
   1    -35.4916754 -0.354917E+02  0.305E-02    2.67       0.0  T
   2    -35.4916758 -0.407512E-06  0.168E-02    2.67       1.5  T
   3    -35.4916758  0.125822E-08  0.424E-03    2.67       5.9  T
   4    -35.4916758 -0.395137E-07  0.173E-03    2.67      14.4  T
   5    -35.4916758 -0.857109E-08  0.874E-04    2.67      28.6  T
   6    -35.4916758 -0.524737E-08  0.329E-04    2.67      75.9  T
     SCC iter.                  ...        0 min,  0.004 sec
     gradient                   ...        0 min,  0.001 sec
 * total energy  :   -35.0957397 Eh     change       -0.1499040E-04 Eh
   gradient norm :     0.0033656 Eh/α   predicted    -0.9843273E-05 ( -34.34%)
   displ. norm   :     0.0864832 α      lambda       -0.2765186E-04
   maximum displ.:     0.0725431 α      in ANC's #2, #5, #3, ...
 * RMSD in coord.:     0.5774086 α      energy gain  -0.1777197E+01 Eh

generating ANC from model Hessian ...
Using Lindh-Hessian (1995)
 Shifting diagonal of input Hessian by   7.555710669408694E-003
 Lowest  eigenvalues of input Hessian
    0.000000    0.000000    0.000000    0.000000    0.000000    0.000000
    0.010000    0.011843    0.014008    0.021127    0.026393    0.027236
    0.043468    0.050899    0.052220    0.063720    0.069232    0.096185
 Highest eigenvalues
    1.748685    1.797129    1.853433    2.017775    2.022208    2.085198
 

........................................................................
.............................. CYCLE   21 ..............................
........................................................................
   1    -35.4915897 -0.354916E+02  0.445E-02    2.66       0.0  T
   2    -35.4915902 -0.496492E-06  0.248E-02    2.66       1.0  T
   3    -35.4915900  0.169906E-06  0.609E-03    2.66       4.1  T
   4    -35.4915902 -0.168241E-06  0.349E-03    2.66       7.2  T
   5    -35.4915903 -0.108154E-06  0.117E-03    2.66      21.3  T
   6    -35.4915903 -0.594308E-08  0.293E-04    2.66      85.3  T
   7    -35.4915903 -0.349246E-09  0.165E-04    2.66     151.5  T
     SCC iter.                  ...        0 min,  0.004 sec
     gradient                   ...        0 min,  0.001 sec
 * total energy  :   -35.0957605 Eh     change       -0.2080905E-04 Eh
   gradient norm :     0.0043605 Eh/α   predicted     0.0000000E+00 (-100.00%)
   displ. norm   :     0.0402612 α      lambda       -0.7361408E-04
   maximum displ.:     0.0262272 α      in ANC's #9, #1, #2, ...

........................................................................
.............................. CYCLE   22 ..............................
........................................................................
   1    -35.4911319 -0.354911E+02  0.313E-02    2.66       0.0  T
   2    -35.4911324 -0.513115E-06  0.156E-02    2.66       1.6  T
   3    -35.4911323  0.811727E-07  0.478E-03    2.66       5.2  T
   4    -35.4911325 -0.132850E-06  0.247E-03    2.66      10.1  T
   5    -35.4911325 -0.342922E-07  0.114E-03    2.66      22.0  T
   6    -35.4911325 -0.734842E-08  0.342E-04    2.66      73.1  T
   7    -35.4911325 -0.105373E-08  0.128E-04    2.66     196.0  T
     SCC iter.                  ...        0 min,  0.004 sec
     gradient                   ...        0 min,  0.001 sec
 * total energy  :   -35.0958035 Eh     change       -0.4302744E-04 Eh
   gradient norm :     0.0026045 Eh/α   predicted    -0.3686594E-04 ( -14.32%)
   displ. norm   :     0.0411981 α      lambda       -0.2137668E-04
   maximum displ.:     0.0332991 α      in ANC's #1, #2, #7, ...

........................................................................
.............................. CYCLE   23 ..............................
........................................................................
   1    -35.4908374 -0.354908E+02  0.268E-02    2.66       0.0  T
   2    -35.4908377 -0.335472E-06  0.143E-02    2.66       1.7  T
   3    -35.4908377  0.405496E-07  0.406E-03    2.66       6.2  T
   4    -35.4908378 -0.502384E-07  0.188E-03    2.66      13.3  T
   5    -35.4908378 -0.283449E-07  0.868E-04    2.66      28.8  T
   6    -35.4908378 -0.530046E-08  0.236E-04    2.66     106.1  T
     SCC iter.                  ...        0 min,  0.004 sec
     gradient                   ...        0 min,  0.001 sec
 * total energy  :   -35.0958200 Eh     change       -0.1652017E-04 Eh
   gradient norm :     0.0012270 Eh/α   predicted    -0.1070687E-04 ( -35.19%)
   displ. norm   :     0.0845083 α      lambda       -0.1864187E-04
   maximum displ.:     0.0666104 α      in ANC's #1, #2, #7, ...

........................................................................
.............................. CYCLE   24 ..............................
........................................................................
   1    -35.4905467 -0.354905E+02  0.490E-02    2.66       0.0  T
   2    -35.4905475 -0.809969E-06  0.269E-02    2.66       1.0  T
   3    -35.4905475  0.131666E-07  0.606E-03    2.66       4.1  T
   4    -35.4905476 -0.809011E-07  0.247E-03    2.66      10.1  T
   5    -35.4905476 -0.233259E-07  0.119E-03    2.66      21.0  T
   6    -35.4905476 -0.115425E-07  0.396E-04    2.66      63.1  T
   7    -35.4905476 -0.130843E-08  0.162E-04    2.66     154.5  T
     SCC iter.                  ...        0 min,  0.004 sec
     gradient                   ...        0 min,  0.001 sec
 * total energy  :   -35.0958386 Eh     change       -0.1852864E-04 Eh
   gradient norm :     0.0015630 Eh/α   predicted    -0.9349323E-05 ( -49.54%)
   displ. norm   :     0.0523638 α      lambda       -0.8287338E-05
   maximum displ.:     0.0400357 α      in ANC's #1, #2, #10, ...

........................................................................
.............................. CYCLE   25 ..............................
........................................................................
   1    -35.4906929 -0.354907E+02  0.277E-02    2.66       0.0  T
   2    -35.4906930 -0.827828E-07  0.157E-02    2.66       1.6  T
   3    -35.4906930  0.720198E-08  0.260E-03    2.66       9.6  T
   4    -35.4906930 -0.195982E-07  0.156E-03    2.66      16.0  T
   5    -35.4906930 -0.174894E-07  0.363E-04    2.66      68.8  T
   6    -35.4906930 -0.901778E-09  0.188E-04    2.66     133.2  T
     SCC iter.                  ...        0 min,  0.004 sec
     gradient                   ...        0 min,  0.001 sec
 * total energy  :   -35.0958491 Eh     change       -0.1056023E-04 Eh
   gradient norm :     0.0017957 Eh/α   predicted    -0.4148273E-05 ( -60.72%)
   displ. norm   :     0.0695676 α      lambda       -0.1014916E-04
   maximum displ.:     0.0511394 α      in ANC's #1, #2, #6, ...

........................................................................
.............................. CYCLE   26 ..............................
........................................................................
   1    -35.4908688 -0.354909E+02  0.358E-02    2.66       0.0  T
   2    -35.4908690 -0.204605E-06  0.202E-02    2.66       1.2  T
   3    -35.4908690 -0.131523E-07  0.336E-03    2.66       7.4  T
   4    -35.4908690 -0.182540E-07  0.183E-03    2.66      13.7  T
   5    -35.4908691 -0.152073E-07  0.863E-04    2.66      29.0  T
   6    -35.4908691 -0.755497E-08  0.229E-04    2.66     109.3  T
     SCC iter.                  ...        0 min,  0.003 sec
     gradient                   ...        0 min,  0.001 sec
 * total energy  :   -35.0958617 Eh     change       -0.1259514E-04 Eh
   gradient norm :     0.0011208 Eh/α   predicted    -0.5085972E-05 ( -59.62%)
   displ. norm   :     0.0874854 α      lambda       -0.9128311E-05
   maximum displ.:     0.0646898 α      in ANC's #1, #2, #9, ...

........................................................................
.............................. CYCLE   27 ..............................
........................................................................
   1    -35.4908826 -0.354909E+02  0.463E-02    2.66       0.0  T
   2    -35.4908829 -0.309274E-06  0.259E-02    2.66       1.0  T
   3    -35.4908830 -0.407249E-07  0.408E-03    2.66       6.1  T
   4    -35.4908830  0.282441E-08  0.221E-03    2.66      11.3  T
   5    -35.4908830 -0.304288E-07  0.990E-04    2.66      25.2  T
   6    -35.4908830 -0.113626E-07  0.258E-04    2.66      96.9  T
     SCC iter.                  ...        0 min,  0.004 sec
     gradient                   ...        0 min,  0.001 sec
 * total energy  :   -35.0958721 Eh     change       -0.1040358E-04 Eh
   gradient norm :     0.0004023 Eh/α   predicted    -0.4579677E-05 ( -55.98%)
   displ. norm   :     0.0687338 α      lambda       -0.4126907E-05
   maximum displ.:     0.0519749 α      in ANC's #1, #2, #6, ...

........................................................................
.............................. CYCLE   28 ..............................
........................................................................
   1    -35.4909259 -0.354909E+02  0.362E-02    2.66       0.0  T
   2    -35.4909260 -0.149818E-06  0.203E-02    2.66       1.2  T
   3    -35.4909260 -0.121273E-07  0.317E-03    2.66       7.9  T
   4    -35.4909260  0.106267E-07  0.204E-03    2.66      12.2  T
   5    -35.4909261 -0.447674E-07  0.488E-04    2.66      51.2  T
   6    -35.4909261 -0.203862E-08  0.215E-04    2.66     116.1  T
     SCC iter.                  ...        0 min,  0.004 sec
     gradient                   ...        0 min,  0.001 sec
 * total energy  :   -35.0958764 Eh     change       -0.4317203E-05 Eh
   gradient norm :     0.0002367 Eh/α   predicted    -0.2068292E-05 ( -52.09%)
   displ. norm   :     0.0292418 α      lambda       -0.8931096E-06
   maximum displ.:     0.0238368 α      in ANC's #1, #2, #9, ...

   *** GEOMETRY OPTIMIZATION CONVERGED AFTER 28 ITERATIONS ***

------------------------------------------------------------------------
 total energy gain   :        -1.7773335 Eh    -1115.2936 kcal/mol
 total RMSD          :         0.6035248 a0        0.3194 Å
 total power (kW/mol):      -166.6567264 (step)********** (real)
------------------------------------------------------------------------

 ANCopt (total)                0 d,  0 h,  0 min,  0.191 sec
 optimizer setup                ...        0 min,  0.000 sec (  0.030%)
 model hessian                  ...        0 min,  0.002 sec (  1.024%)
 ANC generation                 ...        0 min,  0.000 sec (  0.243%)
 coordinate transformation      ...        0 min,  0.000 sec (  0.062%)
 single point calculation       ...        0 min,  0.183 sec ( 95.629%)
 optimization log               ...        0 min,  0.002 sec (  1.004%)
 hessian update                 ...        0 min,  0.000 sec (  0.201%)
 rational function              ...        0 min,  0.003 sec (  1.406%)

================
 final structure:
================
16
 xtb: 6.5.0 (746241f)
C           -0.58019241798710        0.89697116280917       -0.02306327256161
C           -0.00656028530461       -0.33443360169485        0.00586844173220
F            2.96506743878897        3.82327061325065        0.00198302416224
H            6.77568219891198        1.35636630907829        0.17651794881697
S            4.57774360407821        0.32711057709728        0.12804640822412
C            5.73273288352116        1.59716170723873        0.13767826380851
S            0.57489411569816        2.16691836742921       -0.01353552085226
C            5.15942736130583        2.82823356392826        0.09267727175113
C            1.39660890555038       -0.24591814859545        0.03727588422738
H           -1.62345885388676        1.13802052370191       -0.04955230191042
H            5.69201510318870        3.76071865421785        0.08964213670141
C            1.89386235620763        1.03664223644107        0.03198652651877
C            3.75657105940994        2.73936495084088        0.05033591646309
F            2.18823039370364       -1.33029287552672        0.06988996328285
C            3.25933904061721        1.45683382062552        0.06222162883148
H           -0.53926290380334       -1.26686786084185        0.00562768080418
 
 Bond Distances (Angstroems)
 ---------------------------
C1-C2=1.3588         C1-S7=1.7167         C1-H10=1.0711        C2-C1=1.3588         C2-C9=1.4063         C2-H16=1.0739        
F3-C13=1.3430        H4-C6=1.0711         S5-C6=1.7167         S5-C15=1.7375        C6-H4=1.0711         C6-S5=1.7167         
C6-C8=1.3588         S7-C1=1.7167         S7-C12=1.7376        C8-C6=1.3588         C8-H11=1.0739        C8-C13=1.4063        
C9-C2=1.4063         C9-C12=1.3756        C9-F14=1.3430        H10-C1=1.0711        H11-C8=1.0739        C12-S7=1.7376        
C12-C9=1.3756        C12-C15=1.4290       C13-F3=1.3430        C13-C8=1.4063        C13-C15=1.3756       F14-C9=1.3430        
C15-S5=1.7375        C15-C12=1.4290       C15-C13=1.3756       H16-C2=1.0739        
 C  H  Rav=1.0725 sigma=0.0014  Rmin=1.0711  Rmax=1.0739     4
 C  C  Rav=1.3872 sigma=0.0250  Rmin=1.3588  Rmax=1.4290     7
 F  C  Rav=1.3430 sigma=0.0000  Rmin=1.3430  Rmax=1.3430     2
 S  C  Rav=1.7271 sigma=0.0104  Rmin=1.7167  Rmax=1.7376     4
 
 selected bond angles (degree)
 --------------------
S7-C1-C2=112.72                H10-C1-C2=128.00               H10-C1-S7=119.28               C9-C2-C1=111.39                
H16-C2-C1=125.27               H16-C2-C9=123.34               C15-S5-C6= 91.70               S5-C6-H4=119.27                
C8-C6-H4=128.01                C8-C6-S5=112.72                C12-S7-C1= 91.70               H11-C8-C6=125.28               
C13-C8-C6=111.39               C13-C8-H11=123.33              C12-C9-C2=114.79               F14-C9-C2=122.54               
F14-C9-C12=122.67              
 
 selected dihedral angles (degree)
 ---------------------------------
C9-C2-C1-S7=  0.04            C9-C2-C1-H10=180.05           H16-C2-C1-S7=180.02           H16-C2-C1-H10=  0.03          
H4-C6-S5-C15=179.96           C8-C6-S5-C15=359.97           C12-S7-C1-C2=359.96           C12-S7-C1-H10=179.95          
H11-C8-C6-H4=  0.00           H11-C8-C6-S5=180.00           C13-C8-C6-H4=180.04           C13-C8-C6-S5=  0.03           
C12-C9-C2-C1=359.98           C12-C9-C2-H16=179.99          F14-C9-C2-C1=179.97           F14-C9-C2-H16=  0.00          
           -------------------------------------------------
          |                Final Singlepoint                |
           -------------------------------------------------

          ...................................................
          :                      SETUP                      :
          :.................................................:
          :  # basis functions                  64          :
          :  # atomic orbitals                  62          :
          :  # shells                           30          :
          :  # electrons                        62          :
          :  max. iterations                   250          :
          :  Hamiltonian                  GFN2-xTB          :
          :  restarted?                      false          :
          :  GBSA solvation                  false          :
          :  PC potential                    false          :
          :  electronic temp.          300.0000000     K    :
          :  accuracy                    1.0000000          :
          :  -> integral cutoff          0.2500000E+02      :
          :  -> integral neglect         0.1000000E-07      :
          :  -> SCF convergence          0.1000000E-05 Eh   :
          :  -> wf. convergence          0.1000000E-03 e    :
          :  Broyden damping             0.4000000          :
          ...................................................

 iter      E             dE          RMSdq      gap      omega  full diag
   1    -35.4909261 -0.354909E+02  0.115E-04    2.66       0.0  T
   2    -35.4909261 -0.936495E-11  0.739E-05    2.66     338.1  T
   3    -35.4909261  0.532907E-12  0.507E-05    2.66     493.3  T

   *** convergence criteria satisfied after 3 iterations ***

         #    Occupation            Energy/Eh            Energy/eV
      -------------------------------------------------------------
         1        2.0000           -0.8256053             -22.4659
       ...           ...                  ...                  ...
        25        2.0000           -0.4714601             -12.8291
        26        2.0000           -0.4696233             -12.7791
        27        2.0000           -0.4569293             -12.4337
        28        2.0000           -0.4431477             -12.0587
        29        2.0000           -0.4110237             -11.1845
        30        2.0000           -0.4098162             -11.1517
        31        2.0000           -0.3849366             -10.4747 (HOMO)
        32                         -0.2872079              -7.8153 (LUMO)
        33                         -0.2380341              -6.4772
        34                         -0.2246378              -6.1127
        35                         -0.2133011              -5.8042
        36                         -0.1938644              -5.2753
       ...                                ...                  ...
        62                          0.6817120              18.5503
      -------------------------------------------------------------
                  HL-Gap            0.0977287 Eh            2.6593 eV
             Fermi-level           -0.3360722 Eh           -9.1450 eV

 SCC (total)                   0 d,  0 h,  0 min,  0.004 sec
 SCC setup                      ...        0 min,  0.000 sec (  1.665%)
 Dispersion                     ...        0 min,  0.000 sec (  1.239%)
 classical contributions        ...        0 min,  0.000 sec (  0.165%)
 integral evaluation            ...        0 min,  0.001 sec ( 14.893%)
 iterations                     ...        0 min,  0.002 sec ( 46.207%)
 molecular gradient             ...        0 min,  0.001 sec ( 33.559%)
 printout                       ...        0 min,  0.000 sec (  1.932%)

         :::::::::::::::::::::::::::::::::::::::::::::::::::::
         ::                     SUMMARY                     ::
         :::::::::::::::::::::::::::::::::::::::::::::::::::::
         :: total energy             -35.095876440155 Eh    ::
         :: gradient norm              0.000237402816 Eh/a0 ::
         :: HOMO-LUMO gap              2.659333989381 eV    ::
         ::.................................................::
         :: SCC energy               -35.490926083500 Eh    ::
         :: -> isotropic ES            0.021619628861 Eh    ::
         :: -> anisotropic ES          0.000482580737 Eh    ::
         :: -> anisotropic XC          0.002286217658 Eh    ::
         :: -> dispersion             -0.018426417197 Eh    ::
         :: repulsion energy           0.395058200331 Eh    ::
         :: add. restraining           0.000000000000 Eh    ::
         :: total charge               0.000000000000 e     ::
         :::::::::::::::::::::::::::::::::::::::::::::::::::::

           -------------------------------------------------
          |                Property Printout                |
           -------------------------------------------------

    * Orbital Energies and Occupations

         #    Occupation            Energy/Eh            Energy/eV
      -------------------------------------------------------------
         1        2.0000           -0.8256053             -22.4659
       ...           ...                  ...                  ...
        19        2.0000           -0.5119812             -13.9317
        20        2.0000           -0.5072302             -13.8024
        21        2.0000           -0.4965430             -13.5116
        22        2.0000           -0.4836659             -13.1612
        23        2.0000           -0.4834929             -13.1565
        24        2.0000           -0.4800869             -13.0638
        25        2.0000           -0.4714601             -12.8291
        26        2.0000           -0.4696233             -12.7791
        27        2.0000           -0.4569293             -12.4337
        28        2.0000           -0.4431477             -12.0587
        29        2.0000           -0.4110237             -11.1845
        30        2.0000           -0.4098162             -11.1517
        31        2.0000           -0.3849366             -10.4747 (HOMO)
        32                         -0.2872079              -7.8153 (LUMO)
        33                         -0.2380341              -6.4772
        34                         -0.2246378              -6.1127
        35                         -0.2133011              -5.8042
        36                         -0.1938644              -5.2753
        37                         -0.1641557              -4.4669
        38                         -0.1490854              -4.0568
        39                         -0.1171788              -3.1886
        40                         -0.0256221              -0.6972
        41                         -0.0063260              -0.1721
        42                          0.0052266               0.1422
       ...                                ...                  ...
        62                          0.6817120              18.5503
      -------------------------------------------------------------
                  HL-Gap            0.0977287 Eh            2.6593 eV
             Fermi-level           -0.3360722 Eh           -9.1450 eV

     #   Z          covCN         q      C6AA      α(0)
     1   6 C        2.952    -0.029    28.732     8.792
     2   6 C        3.092    -0.062    29.434     8.892
     3   9 F        0.786    -0.213    11.366     3.982
     4   1 H        0.927     0.063     2.169     2.303
     5  16 S        2.342     0.033   139.729    19.895
     6   6 C        2.952    -0.029    28.732     8.792
     7  16 S        2.342     0.033   139.730    19.895
     8   6 C        3.092    -0.062    29.434     8.892
     9   6 C        3.004     0.148    24.778     8.165
    10   1 H        0.927     0.063     2.169     2.303
    11   1 H        0.926     0.064     2.152     2.294
    12   6 C        3.006    -0.003    28.079     8.692
    13   6 C        3.004     0.148    24.778     8.165
    14   9 F        0.786    -0.213    11.366     3.982
    15   6 C        3.006    -0.003    28.079     8.692
    16   1 H        0.926     0.064     2.152     2.294

 Mol. C6AA /au·bohr⁶  :       6096.077262
 Mol. C8AA /au·bohr⁸  :     192664.921295
 Mol. α(0) /au        :        126.032574


Wiberg/Mayer (AO) data.
largest (>0.10) Wiberg bond orders for each atom

 ---------------------------------------------------------------------------
     #   Z sym  total        # sym  WBO       # sym  WBO       # sym  WBO
 ---------------------------------------------------------------------------
     1   6 C    3.939 --     2 C    1.598     7 S    1.208    10 H    0.969
     2   6 C    3.984 --     1 C    1.598     9 C    1.270    16 H    0.962
     3   9 F    1.113 --    13 C    0.961
     4   1 H    0.996 --     6 C    0.969
     5  16 S    2.641 --     6 C    1.208    15 C    1.140
     6   6 C    3.939 --     8 C    1.598     5 S    1.208     4 H    0.969
     7  16 S    2.641 --     1 C    1.208    12 C    1.140
     8   6 C    3.984 --     6 C    1.598    13 C    1.270    11 H    0.962
     9   6 C    3.877 --    12 C    1.449     2 C    1.270    14 F    0.961
    10   1 H    0.996 --     1 C    0.969
    11   1 H    0.996 --     8 C    0.962
    12   6 C    3.953 --     9 C    1.449    15 C    1.157     7 S    1.140
    13   6 C    3.877 --    15 C    1.449     8 C    1.270     3 F    0.961
    14   9 F    1.113 --     9 C    0.961
    15   6 C    3.953 --    13 C    1.449    12 C    1.157     5 S    1.140
    16   1 H    0.996 --     2 C    0.962
 ---------------------------------------------------------------------------

Topologies differ in total number of bonds
Writing topology from bond orders to xtbtopo.mol

molecular dipole:
                 x           y           z       tot (Debye)
 q only:       -0.000       0.000       0.011
   full:       -0.000       0.000       0.008       0.021
molecular quadrupole (traceless):
                xx          xy          yy          xz          yz          zz
 q only:       12.312       2.469     -10.491       0.423       0.256      -1.821
  q+dip:       14.853       7.616     -12.193       0.409       0.404      -2.660
   full:       14.396       6.937     -13.141       0.369       0.426      -1.255

           -------------------------------------------------
          |                Geometry Summary                 |
           -------------------------------------------------

      molecular mass/u    :      202.2440313
   center of mass at/Å    :        2.5764531       1.2468419       0.0494712
  moments of inertia/u·Å² :        0.4050618E+03   0.7944629E+03   0.1199497E+04
rotational constants/cm⁻¹ :        0.4161744E-01   0.2121890E-01   0.1405391E-01

 * 17 selected distances

     #   Z          #   Z                                           value/Å
     1   6 C        2   6 C                                       1.3587674
     4   1 H        6   6 C                                       1.0710903
     5  16 S        6   6 C                                       1.7167188
     1   6 C        7  16 S                                       1.7167068
     6   6 C        8   6 C                                       1.3587651
     2   6 C        9   6 C                                       1.4063092
     1   6 C       10   1 H                                       1.0710796 (min)
     8   6 C       11   1 H                                       1.0738657
     7  16 S       12   6 C                                       1.7376059 (max)
     9   6 C       12   6 C                                       1.3755910
     3   9 F       13   6 C                                       1.3430070
     8   6 C       13   6 C                                       1.4063060
     9   6 C       14   9 F                                       1.3429807
     5  16 S       15   6 C                                       1.7374690
    12   6 C       15   6 C                                       1.4289864
    13   6 C       15   6 C                                       1.3755971
     2   6 C       16   1 H                                       1.0738743

 * 4 distinct bonds (by element types)

   Z      Z             #   av. dist./Å        max./Å        min./Å
   1 H    6 C           4     1.0724775     1.0738743     1.0710796
   6 C    6 C           7     1.3871889     1.4289864     1.3587651
   6 C    9 F           2     1.3429938     1.3430070     1.3429807
   6 C   16 S           4     1.7271251     1.7376059     1.7167068


optimized geometry written to: xtbopt.xyz


           -------------------------------------------------
          | TOTAL ENERGY              -35.095876440155 Eh   |
          | GRADIENT NORM               0.000237402816 Eh/α |
          | HOMO-LUMO GAP               2.659333989381 eV   |
           -------------------------------------------------
########################################################################
[WARNING] Runtime exception occurred
-1- restart_readRestart: Number of electron missmatch in restart file.
########################################################################

------------------------------------------------------------------------
 * finished run on 2022/07/14 at 15:23:25.166     
------------------------------------------------------------------------
 total:
 * wall-time:     0 d,  0 h,  0 min,  0.220 sec
 *  cpu-time:     0 d,  0 h,  0 min,  3.477 sec
 * ratio c/w:    15.799 speedup
 SCF:
 * wall-time:     0 d,  0 h,  0 min,  0.013 sec
 *  cpu-time:     0 d,  0 h,  0 min,  0.195 sec
 * ratio c/w:    15.149 speedup
 ANC optimizer:
 * wall-time:     0 d,  0 h,  0 min,  0.196 sec
 *  cpu-time:     0 d,  0 h,  0 min,  3.121 sec
 * ratio c/w:    15.957 speedup

