16
 energy: -33.318542987804 gnorm: 4.096496482767 xtb: 6.5.0 (746241f)
C           -0.42960000000000        0.84760000000000        0.01710000000000
C            0.09780000000000       -0.38330000000000       -0.07470000000000
F            3.32860000000000        3.64400000000000       -0.14600000000000
H            6.58270000000000        1.23980000000000        0.25800000000000
S            4.13900000000000        0.74800000000000        0.23110000000000
C            5.58870000000000        1.66320000000000        0.18190000000000
S            1.01540000000000        1.73400000000000        0.28000000000000
C            5.05420000000000        2.88390000000000        0.02130000000000
C            1.50220000000000       -0.11840000000000        0.06220000000000
H           -1.41990000000000        1.28540000000000       -0.00820000000000
H            5.56900000000000        3.83830000000000       -0.07910000000000
C            1.84790000000000        0.96660000000000        0.16400000000000
C            3.64800000000000        2.59570000000000        0.00750000000000
F            1.81600000000000       -1.17590000000000       -0.02560000000000
C            3.30220000000000        1.51240000000000        0.12610000000000
H           -0.41950000000000       -1.33120000000000       -0.21200000000000
16
 energy: -34.609173685441 gnorm: 0.978488271450 xtb: 6.5.0 (746241f)
C           -0.44167507524599        0.85746743933757        0.01879080266222
C            0.09020676706239       -0.37460743174753       -0.07370935316367
F            3.29178028392452        3.71945165295778       -0.15711427867639
H            6.58396682147433        1.24069156396435        0.25796519111066
S            4.26856059494409        0.61246017960517        0.24994590189056
C            5.60065942573571        1.65331734839744        0.18327832503221
S            0.88653786921233        1.87029114753324        0.29683079343576
C            5.06173730812974        2.87528477640030        0.02254620035466
C            1.48762935388155       -0.14777270896934        0.05663408227985
H           -1.42120456650944        1.28451663707226       -0.00818031708288
H            5.56713982667477        3.83570162278168       -0.07876137741312
C            1.94643556027835        0.92239405527373        0.15459969547258
C            3.66261672863738        2.62545067195683        0.00523578885228
F            1.85243316136819       -1.25206779856642       -0.03131832810504
C            3.20355285174200        1.55614431394291        0.11864654066312
H           -0.41767691130991       -1.32862346994000       -0.21178966731280
16
 energy: -34.884689352815 gnorm: 0.536614670800 xtb: 6.5.0 (746241f)
C           -0.46276549214795        0.86721293260150        0.02366935616596
C            0.05696738411128       -0.37029319500629       -0.07067338683028
F            3.24002195115949        3.83294701612995       -0.16804359148478
H            6.59788566131831        1.24158683380223        0.25866739029332
S            4.31951356738702        0.55376885688171        0.26602786663419
C            5.62133564247764        1.64304051993177        0.18420587093670
S            0.83652622005586        1.93141396810374        0.29441855708077
C            5.09453392654577        2.87064537319883        0.02267265962254
C            1.44406648353080       -0.21050473981352        0.05548335395430
H           -1.43525943955906        1.28378458103213       -0.00810544421920
H            5.57082756347206        3.83024918965792       -0.07749112932682
C            1.94555583613152        0.95432052018657        0.15932133232174
C            3.70557115729732        2.68655434269805       -0.00543492502985
F            1.90441304350338       -1.36571134002032       -0.04531272306886
C            3.20513356906029        1.52418943944745        0.12659271538569
H           -0.42162707434375       -1.32310429883172       -0.21239790243543
16
 energy: -35.017588938162 gnorm: 0.277721166485 xtb: 6.5.0 (746241f)
C           -0.49977360333859        0.87760368341943        0.02904182243519
C            0.02825210437257       -0.36094674269556       -0.06652282294696
F            3.16734914204822        3.89075560573612       -0.17237548694562
H            6.63476494594386        1.24656456486839        0.25895520759630
S            4.40421161522023        0.49124312513358        0.28216200482603
C            5.65759606793427        1.63203075202221        0.18555542016523
S            0.75304605208037        1.99636354181432        0.28627305903080
C            5.12274660077227        2.86072280089913        0.02232527430885
C            1.40603617707401       -0.24941099335508        0.05171344496098
H           -1.47252794653707        1.27900670017665       -0.00761295514307
H            5.57532019360753        3.82434769486190       -0.07672530039062
C            1.92421244261321        0.97903763798859        0.15970085737723
C            3.74312345963337        2.72457789471492       -0.01308531647574
F            1.97735063927789       -1.42332352810195       -0.05606237039563
C            3.22757975900290        1.49885934831633        0.13274997657706
H           -0.42658764970504       -1.31733208579901       -0.21249281498004
16
 energy: -35.069274110737 gnorm: 0.139215791420 xtb: 6.5.0 (746241f)
C           -0.53427692594162        0.88705449646271        0.03553322184764
C            0.00553703951595       -0.35231893086494       -0.06191587590617
F            3.09306897823179        3.91454485395888       -0.17375894536947
H            6.68767113590603        1.26345672086854        0.25828935477774
S            4.47654134334188        0.43384366843423        0.29743221997407
C            5.69117360287306        1.62150876497201        0.18798456650073
S            0.68214075892838        2.05657254633382        0.27074856611673
C            5.14486113458905        2.85100638401491        0.02255291993804
C            1.38733298702141       -0.27279762090462        0.04238553213119
H           -1.52619149357252        1.26180561420272       -0.00483941166133
H            5.59839025140197        3.81545291656616       -0.07614871702606
C            1.90971775935829        1.00179052784266        0.15396989871869
C            3.76165197845213        2.74827391390458       -0.01410692103118
F            2.05203524855498       -1.44715452469119       -0.06305086630998
C            3.24354439667431        1.47610799154141        0.13914545693257
H           -0.45049819533508       -1.30904732264190       -0.21062099963320
16
 energy: -35.084741461125 gnorm: 0.087770882283 xtb: 6.5.0 (746241f)
C           -0.56390350960057        0.89027835605528        0.04097342024104
C           -0.01181363168801       -0.34567985852143       -0.05782548501514
F            3.04357493341617        3.91155123532053       -0.17321154000464
H            6.73982653697521        1.30021720721329        0.25842334647868
S            4.52683002621488        0.39501268169012        0.30812871892183
C            5.71936037479919        1.61648496587858        0.19317567499687
S            0.63240659984759        2.09881118830729        0.24668226246940
C            5.16204729882168        2.84292350962823        0.02625318498650
C            1.38057449355671       -0.27865335538077        0.02638135569284
H           -1.58076714015086        1.22223040632493        0.00499949495073
H            5.63763183130657        3.79903771676349       -0.07366786794182
C            1.89936760540554        1.01789778621225        0.13872201199461
C            3.76916404077801        2.75643501464020       -0.00931140935935
F            2.10341865760169       -1.44318572874767       -0.06953756956979
C            3.25511368523539        1.46183628380552        0.14265922528236
H           -0.49013180251919       -1.29509740918984       -0.19924482412413
16
 energy: -35.090050090901 gnorm: 0.065719368403 xtb: 6.5.0 (746241f)
C           -0.58277598011174        0.89123186785705        0.04548726835384
C           -0.01986672328743       -0.34006315806019       -0.05297833951798
F            3.01470967283538        3.89445011641188       -0.17289764832837
H            6.77298170124806        1.33841841774260        0.26426362805636
S            4.55722129510886        0.37061055547378        0.31060729669974
C            5.73651708481878        1.61355206800193        0.20069770837998
S            0.60178694226652        2.12658858390068        0.21677195890209
C            5.17028875130129        2.83597824095662        0.03332652963490
C            1.38141490962795       -0.27386715681401        0.00638708090234
H           -1.61767990238231        1.17948138828507        0.02288394729693
H            5.67328538095992        3.78003318316495       -0.06480831865181
C            1.89428276803999        1.02806131653569        0.11564763504419
C            3.76983073781893        2.75489445041585       -0.00575551025366
F            2.13536196568479       -1.42388319835891       -0.07888360773225
C            3.26106198458436        1.45445259201620        0.13840290602019
H           -0.52572058851336       -1.27983926752921       -0.17555253480648
16
 energy: -35.092986432196 gnorm: 0.045575443550 xtb: 6.5.0 (746241f)
C           -0.59263016697562        0.89265167266246        0.04931113065479
C           -0.02061258428280       -0.33483316810585       -0.04754950523310
F            2.99580047300312        3.86778900718488       -0.17258684687313
H            6.79028325048994        1.37094095644785        0.27323050763615
S            4.57682497840061        0.35348132868396        0.30803936541728
C            5.74538270067226        1.61114872062103        0.20796434630832
S            0.58215779137900        2.14584467023112        0.18639871982736
C            5.17093645521630        2.83007699333602        0.04106326163898
C            1.38622316143122       -0.26415485867627       -0.01226269034007
H           -1.63728305865903        1.14420431846980        0.04273255636833
H            5.69802495951486        3.76259106040229       -0.05200262244664
C            1.89265540151113        1.03321838395270        0.09169240067099
C            3.76624999159376        2.74730310742665       -0.00445892351101
F            2.15631612040566       -1.39566543152516       -0.08951067581204
C            3.26345767639731        1.45071672673396        0.12913051733707
H           -0.55108715009769       -1.26521348784545       -0.14759154164327
16
 energy: -35.094814297168 gnorm: 0.021329691723 xtb: 6.5.0 (746241f)
C           -0.59399040623645        0.89517439814467        0.05148947167341
C           -0.01547491762274       -0.33019972605853       -0.04250094954190
F            2.98366179653295        3.83528131317996       -0.17090253940675
H            6.79381138135258        1.39223633648668        0.28098909853226
S            4.58806666576068        0.34167781120550        0.30310513857437
C            5.74677222446927        1.60872707506237        0.21244011878948
S            0.57077050292829        2.15826841606184        0.16128798820001
C            5.16565576604269        2.82549849094438        0.04728909322392
C            1.39272100337871       -0.25241031558858       -0.02432949183179
H           -1.64105492602987        1.12229438204660        0.05825598025184
H            5.70788172614147        3.74979315559426       -0.03908199624617
C            1.89328920680335        1.03388036158660        0.07349197435166
C            3.76006756851670        2.73605659714506       -0.00458829699914
F            2.16872619797866       -1.36256649246737       -0.09795904834827
C            3.26309285657568        1.44973353457745        0.11829864597016
H           -0.56129664659195       -1.25334533792091       -0.12368518719308
16
 energy: -35.095360316440 gnorm: 0.009492342410 xtb: 6.5.0 (746241f)
C           -0.58908690672568        0.89698968738065        0.05138851627271
C           -0.01005378493602       -0.32895887648786       -0.03886907069124
F            2.98126879738411        3.81752157767670       -0.16862535181558
H            6.78692932781716        1.39161721025745        0.28493673522499
S            4.58847293913283        0.33827654847066        0.29637456308168
C            5.74217433402888        1.60705012100680        0.21251309036792
S            0.56970678337305        2.16153657465747        0.15062500566416
C            5.16048122126979        2.82442980030845        0.05026585555843
C            1.39600520124111       -0.24612746789206       -0.02568425873071
H           -1.63419534490628        1.12229681010347        0.06321973225492
H            5.70190946363838        3.74869369932549       -0.02937634737862
C            1.89465338171911        1.03227204486833        0.06696942713368
C            3.75665467550987        2.72961318363229       -0.00698383626016
F            2.17099109319734       -1.34408281647960       -0.10009329844745
C            3.26136994341693        1.45095244089239        0.10920741518147
H           -0.55458112516059       -1.25198053772065       -0.11226817741617
16
 energy: -35.095499051121 gnorm: 0.007360173772 xtb: 6.5.0 (746241f)
C           -0.58490657201209        0.89736614717921        0.05107848239907
C           -0.00821788355123       -0.32999349067233       -0.03573211087169
F            2.98206588993122        3.81387465207496       -0.16695916502132
H            6.78097217450278        1.38303477097785        0.28795135333004
S            4.58568132282702        0.33817309107056        0.28901093872070
C            5.73793823050587        1.60638085853771        0.21172709223200
S            0.57187080517505        2.16158922360635        0.14636299499040
C            5.15889983575840        2.82534075023548        0.05211354531711
C            1.39618800494986       -0.24507506195383       -0.02408153184398
H           -1.62876259371421        1.12974824364632        0.06395013393861
H            5.69457671736219        3.75302163270379       -0.02185036876631
C            1.89536614800522        1.03136022859112        0.06427921215680
C            3.75664546479229        2.72870294198735       -0.01000852399730
F            2.17072986649200       -1.33929032153999       -0.09981692906405
C            3.26037035524334        1.45216991687022        0.10168199570538
H           -0.54671776626768       -1.25630358331480       -0.10610711922543
16
 energy: -35.095569780199 gnorm: 0.005480969014 xtb: 6.5.0 (746241f)
C           -0.58195125315326        0.89704882514142        0.05130331710344
C           -0.00819926421322       -0.33172004585777       -0.03167672475144
F            2.98202645012308        3.81357965336434       -0.16521127339986
H            6.77660873042480        1.37376939862487        0.29204808859243
S            4.58298592929622        0.33785588085186        0.27955574632944
C            5.73465529301044        1.60613859708204        0.21149761103486
S            0.57388903380724        2.16182952934075        0.14080930898126
C            5.15907230316819        2.82678200811067        0.05466652908203
C            1.39548817265105       -0.24555308088335       -0.02293757217136
H           -1.62514628807482        1.13763005694399        0.06487287899550
H            5.68914530677471        3.75816414249977       -0.01324694634853
C            1.89562312297584        1.03098623348307        0.06005460045935
C            3.75777739293268        2.72959645767464       -0.01297107712651
F            2.17179866560311       -1.33748430512635       -0.09947491800992
C            3.25992115362271        1.45316568762092        0.09270686954061
H           -0.54099474894879       -1.26168903887090       -0.09839643831127
16
 energy: -35.095605110228 gnorm: 0.004359439367 xtb: 6.5.0 (746241f)
C           -0.58097638772765        0.89654245293873        0.05169306606804
C           -0.00895466127952       -0.33293799599030       -0.02810175507322
F            2.98033114830610        3.81375553645525       -0.16340938173208
H            6.77475416862551        1.36859004012390        0.29528489708276
S            4.58155090973884        0.33685335494182        0.27105042254675
C            5.73328582439690        1.60605412702997        0.21177600790588
S            0.57462825964944        2.16265696221086        0.13435546710612
C            5.16001519832983        2.82775624065540        0.05737114546389
C            1.39490218878288       -0.24627558719003       -0.02287281783124
H           -1.62397915329669        1.14160399666691        0.06601629091856
H            5.68768150903412        3.76090997277251       -0.00587538501675
C            1.89548630353336        1.03110208585577        0.05503118137093
C            3.75881512247099        2.73086793015592       -0.01425734350914
F            2.17450881155812       -1.33632670968375       -0.09881886224273
C            3.25990967010512        1.45369633256055        0.08502928395163
H           -0.53925891222737       -1.26474873950352       -0.09067221700938
16
 energy: -35.095637016437 gnorm: 0.003941406664 xtb: 6.5.0 (746241f)
C           -0.58076660316801        0.89608005972385        0.05154674031318
C           -0.00972416695866       -0.33381618466030       -0.02421162811319
F            2.97692404539466        3.81357411932905       -0.16021131097649
H            6.77373190135208        1.36515294357376        0.29735113043562
S            4.58012395595882        0.33522777393824        0.26092866852120
C            5.73260156467924        1.60570600418836        0.21178074302697
S            0.57493220286263        2.16393758304146        0.12525578557745
C            5.16114593740019        2.82840353031411        0.06091407771054
C            1.39457299177546       -0.24697364677905       -0.02302863142186
H           -1.62372543603722        1.14347118438447        0.06676098288174
H            5.68836875453165        3.76217211432900        0.00290425164108
C            1.89513488462496        1.03152351205036        0.04835678032270
C            3.75967586359543        2.73241938127514       -0.01405285239857
F            2.17905520917721       -1.33454034946607       -0.09638727460846
C            3.25999033850226        1.45419752018929        0.07653140956827
H           -0.53934144369069       -1.26643554543169       -0.08083887248014
16
 energy: -35.095663825970 gnorm: 0.003784288756 xtb: 6.5.0 (746241f)
C           -0.58091381748875        0.89597811760808        0.05007746947528
C           -0.00979695821783       -0.33408979730658       -0.02103142708571
F            2.97293255999767        3.81312864902435       -0.15533656964167
H            6.77325047395608        1.36373735841885        0.29632490869955
S            4.57836211962655        0.33372365325122        0.25133752287706
C            5.73230310700966        1.60482503365313        0.21061499583758
S            0.57517610882534        2.16506386604962        0.11541362229760
C            5.16177103660740        2.82848142836419        0.06447743327126
C            1.39474725633403       -0.24730714826531       -0.02271062338283
H           -1.62395212326923        1.14293732415061        0.06586146765976
H            5.69054240049139        3.76167248612350        0.01166054888313
C            1.89472277457061        1.03217359246219        0.04187969891285
C            3.76000468377848        2.73385863439392       -0.01204216963468
F            2.18402668147826       -1.33241216574275       -0.09116857547660
C            3.25998602999692        1.45477285112676        0.06939977175932
H           -0.54046233369660       -1.26644388331179       -0.07115807445186
16
 energy: -35.095687933099 gnorm: 0.003253613968 xtb: 6.5.0 (746241f)
C           -0.58093056307234        0.89632112825832        0.04681507207309
C           -0.00893876887430       -0.33387478082580       -0.01869496795600
F            2.96905493235805        3.81275213300740       -0.14811189128796
H            6.77284366310991        1.36349275665200        0.29126934665845
S            4.57594148013251        0.33272240290461        0.24273665465301
C            5.73190712137136        1.60328568799748        0.20762820230034
S            0.57567635740268        2.16574056472958        0.10544092619521
C            5.16162669849008        2.82805692409723        0.06775738168564
C            1.39542831445431       -0.24724345223533       -0.02120851039746
H           -1.62412606118905        1.14073133037343        0.06238535071455
H            5.69329061693111        3.75985508856005        0.01998930111242
C            1.89432017975173        1.03305121826735        0.03647803370809
C            3.75978717101897        2.73515972241327       -0.00822958759149
F            2.18866291335146       -1.33021898119988       -0.08232455160005
C            3.25983163596685        1.45551869200045        0.06432060670854
H           -0.54167569120332       -1.26525043500018       -0.06265136697634
16
 energy: -35.095704233712 gnorm: 0.002704688042 xtb: 6.5.0 (746241f)
C           -0.58054315989978        0.89689268169808        0.04274832709738
C           -0.00755418545994       -0.33351002108614       -0.01753949586016
F            2.96689625544755        3.81281974903727       -0.14025692516340
H            6.77228423429310        1.36355667631166        0.28385460841473
S            4.57362282632785        0.33253532742846        0.23728864604731
C            5.73119346612199        1.60161399813488        0.20360297145521
S            0.57630587217782        2.16582344766684        0.09809992904664
C            5.16084981942975        2.82746767653500        0.06981829639471
C            1.39630144361649       -0.24684279217764       -0.01871890222910
H           -1.62393311601788        1.13833165579810        0.05719664510738
H            5.69514413035738        3.75791762343693        0.02553802451653
C            1.89405867696449        1.03396479057592        0.03382104886701
C            3.75924594323472        2.73600508604659       -0.00412270908165
F            2.19123361943177       -1.32872183091699       -0.07242713994411
C            3.25961641443596        1.45621090107455        0.06257668111345
H           -0.54202224046126       -1.26396496956353       -0.05788000578190
16
 energy: -35.095714474440 gnorm: 0.002585020227 xtb: 6.5.0 (746241f)
C           -0.57992244502551        0.89733617736259        0.03910328268204
C           -0.00637140222415       -0.33334960066603       -0.01690751569972
F            2.96636428740688        3.81330993521255       -0.13307334110800
H            6.77159023240081        1.36319526466332        0.27683774935712
S            4.57207060919557        0.33265429363411        0.23403334852795
C            5.73028846034470        1.60031736052847        0.19981131384181
S            0.57671415661082        2.16574116868761        0.09314771100670
C            5.16004181354984        2.82708502517613        0.07090217840844
C            1.39700829667813       -0.24637017260965       -0.01602787839369
H           -1.62348871669307        1.13685968821579        0.05199515044618
H            5.69577248655767        3.75678592348238        0.02857228088592
C            1.89390894502909        1.03482563537512        0.03310900626807
C            3.75875858031834        2.73648435034209       -0.00090199777847
F            2.19199620555885       -1.32795670821394       -0.06384443755368
C            3.25948963515245        1.45663535843291        0.06274748703778
H           -0.54152114486042       -1.26345369962345       -0.05590433792841
16
 energy: -35.095724688044 gnorm: 0.002778434272 xtb: 6.5.0 (746241f)
C           -0.57920155280749        0.89762582604670        0.03511908102586
C           -0.00536106208021       -0.33339614123746       -0.01604847019548
F            2.96638809130277        3.81417768201603       -0.12440316138264
H            6.77075961226217        1.36223596978404        0.26921547878213
S            4.57099288922478        0.33255643411677        0.23018381885139
C            5.72920282741363        1.59913772619320        0.19560147908981
S            0.57676461040869        2.16583887422276        0.08760844623333
C            5.15933474715479        2.82687338457846        0.07190164770083
C            1.39765361893009       -0.24585243229652       -0.01271833154575
H           -1.62295386372940        1.13597162155125        0.04587720835814
H            5.69585898525636        3.75617342682829        0.03123603499246
C            1.89372910177405        1.03590279198375        0.03288645967144
C            3.75830976532692        2.73695115954969        0.00239770614289
F            2.19225240784410       -1.32737226750529       -0.05439445609614
C            3.25947128880243        1.45685454783261        0.06335969248897
H           -0.54050146708368       -1.26357860366430       -0.05422263411722
16
 energy: -35.095739678442 gnorm: 0.003366045698 xtb: 6.5.0 (746241f)
C           -0.57838746392939        0.89776118997298        0.02911234962085
C           -0.00430339588973       -0.33364814474596       -0.01436402217228
F            2.96648818439967        3.81569519010420       -0.11025747816118
H            6.76973558262149        1.36036608671942        0.25814101009391
S            4.57020954986968        0.33182680041555        0.22287490578858
C            5.72781171757275        1.59771506392501        0.18931363851714
S            0.57619809843921        2.16634044722598        0.07824624570245
C            5.15865592172818        2.82675577922033        0.07348106700276
C            1.39844733312604       -0.24514323365101       -0.00744238408084
H           -1.62238998189004        1.13533159152941        0.03622328162393
H            5.69572351438909        3.75582121121884        0.03526424123426
C            1.89338335372467        1.03761744634103        0.03264727498229
C            3.75772436405517        2.73766617270795        0.00736879581520
F            2.19265092246472       -1.32657328758394       -0.04011836668560
C            3.25958683034998        1.45689301970493        0.06407496703182
H           -0.53883453103148       -1.26432533310474       -0.05096552631327
16
 energy: -35.095760487491 gnorm: 0.004360510204 xtb: 6.5.0 (746241f)
C           -0.57783243070722        0.89756342722823        0.02043499823710
C           -0.00337131888892       -0.33409813348026       -0.01150480662416
F            2.96639929022103        3.81795847293137       -0.08901618354402
H            6.76884679691776        1.35754916374403        0.24293143971958
S            4.57003570179198        0.33009410145094        0.21001394332584
C            5.72649692238567        1.59617054751847        0.18039713411017
S            0.57466656030028        2.16736389804295        0.06345781690351
C            5.15820385104040        2.82672522675066        0.07595574168777
C            1.39934572573366       -0.24423880382204        0.00033042096882
H           -1.62211329471009        1.13499623667075        0.02181936474042
H            5.69553690816342        3.75577377690057        0.04167775579137
C            1.89281586543557        1.03996384549277        0.03228682800962
C            3.75696283133033        2.73869475326250        0.01466966612364
F            2.19352528551593       -1.32543560689340       -0.01984942596240
C            3.25985025564887        1.45673690185796        0.06455195229294
H           -0.53666895017866       -1.26571780765552       -0.04455664578016
16
 energy: -35.095803514931 gnorm: 0.002604527759 xtb: 6.5.0 (746241f)
C           -0.57999861465801        0.89698109484390        0.01821803486065
C           -0.00505158475528       -0.33419740220208       -0.01018002098822
F            2.96722988629011        3.81859012652666       -0.08655519381954
H            6.77156668223056        1.35866467381302        0.24257828724357
S            4.57308879062739        0.32986554837340        0.19650152831879
C            5.72926303524263        1.59729503186599        0.17943933881791
S            0.57328993866104        2.16687772857752        0.05570352454905
C            5.15957244309103        2.82698976973117        0.07647060354236
C            1.39806803974005       -0.24463782955886        0.00398115711918
H           -1.62423493750470        1.13526389347055        0.01697311924368
H            5.69592867307539        3.75660987106606        0.04300030750460
C            1.89258804243651        1.03889116408914        0.03955428128462
C            3.75763311727497        2.73848837990627        0.01721407740335
F            2.19226677779836       -1.32664158753150       -0.01813991811031
C            3.25944129582741        1.45697938053978        0.07028802517677
H           -0.53795158537745       -1.26591984351106       -0.04144715214641
16
 energy: -35.095820035096 gnorm: 0.001226998583 xtb: 6.5.0 (746241f)
C           -0.58119850650937        0.89670130767864        0.01272659245442
C           -0.00615253191687       -0.33431231485960       -0.00907128959836
F            2.96767263744413        3.81962661762884       -0.07855272565495
H            6.77350113766401        1.35894758249032        0.23588676711257
S            4.57499802197066        0.32969460897287        0.19016812893291
C            5.73125417969973        1.59791813350074        0.17361070922580
S            0.57282036097460        2.16665947180906        0.04995035954262
C            5.16026235315637        2.82730179544482        0.07757443770108
C            1.39719430518728       -0.24513287812740        0.00789683219668
H           -1.62524858161948        1.13607060113248        0.00889215264519
H            5.69545110973498        3.75775553056560        0.04767229811395